<VTKFile type="UnstructuredGrid" version="0.1" byte_order="LittleEndian">
<UnstructuredGrid>
<Piece NumberOfPoints="4466" NumberOfCells="8640">
<PointData Scalars="abs_term_u">
<DataArray type="Float64" Name="real_part_term_u" format="ascii">
0.417386
0.393892
0.427699
0.355336
0.631749
0.659454
0.641568
0.723676
0.301518
0.607015
0.236553
0.164326
0.838878
0.873951
0.86321
0.957604
0.0877641
0.492721
0.692819
0.849361
0.416546
0.321132
0.0110203
0.99907
1.0473
1.0287
1.10437
0.232385
0.422924
0.634783
0.816777
0.956798
1.04068
0.565667
-0.0629864
0.158953
1.08831
1.13742
1.10524
1.05369
1.14735
-0.132031
0.364347
0.546966
0.761959
0.895423
0.972366
0.982866
0.702769
0.0976185
0.30681
1.11994
1.10906
0.995309
0.92385
1.081
-0.190952
-0.0141067
0.135244
0.487844
0.641514
0.820031
0.890998
0.898857
0.839811
0.744175
0.263136
0.421624
1.01775
0.881635
0.801439
0.716623
0.910589
-0.23768
-0.0693003
0.0819493
0.209159
-0.286912
-0.270121
0.561197
0.661035
0.802722
0.806309
0.747678
0.626649
0.711739
0.357916
0.486725
0.782796
0.450772
0.652513
0.527715
0.651094
-0.287159
-0.270646
-0.110649
0.0438448
0.180707
0.307686
-0.149871
-0.136462
0.576909
0.622443
0.710327
0.652417
0.535427
0.365428
0.152366
0.615376
0.418849
0.498926
0.490297
0.174964
0.328306
-0.0664423
0.327119
-0.143061
-0.0424422
-0.238182
-0.111531
0.0139589
0.150231
0.26767
0.3619
0.0100382
0.536912
0.526784
0.558523
0.446176
0.284071
0.0816858
-0.147283
0.469749
0.429153
0.458412
0.15028
-0.194756
-0.0267718
-0.372853
-0.0295543
-0.131484
-0.190717
-0.005475
0.082717
-0.0619375
0.0465234
0.126182
0.238955
0.319922
0.372427
0.15837
0.445934
0.38664
0.362104
0.208308
0.0188601
-0.196603
-0.423003
0.283775
0.391904
0.372668
-0.207637
-0.438174
-0.358216
-0.634076
-0.643628
-0.384361
-0.0645842
0.0107252
0.0217663
0.00594373
0.13116
0.193673
0.121987
0.193574
0.232017
0.294182
0.330524
0.338593
0.245675
0.315204
0.217491
0.141451
-0.0351613
-0.233208
-0.443452
-0.648561
0.0841447
0.314471
0.255595
-0.546458
-0.666291
-0.802887
-0.836131
-0.831977
-0.702476
0.235828
0.300236
0.353666
0.164791
0.0879391
0.400382
0.151347
0.237739
0.175813
0.224714
0.240033
0.272759
0.278496
0.305485
0.284837
0.303535
0.298641
0.267032
0.290582
0.163782
0.0396587
-0.804962
-0.0784883
-0.260373
-0.451773
-0.637524
-0.108422
0.207484
0.120193
-0.832587
-0.93353
-0.996618
-0.978421
-0.938412
-0.952505
0.417414
0.393367
0.628465
0.490397
0.575011
0.352715
0.532348
0.626677
0.299082
0.424466
0.371406
0.343843
0.377396
0.315374
0.31014
0.385192
0.371517
0.428275
0.290665
0.271291
0.230811
0.168627
0.290153
0.00700799
-0.127165
-0.879226
-0.760861
-0.274186
-0.44575
-0.61303
-0.274804
0.0849035
-0.0186814
-0.955265
-1.04454
-1.10835
-1.07696
-1.02611
-1.11157
0.645714
0.656925
0.844477
0.815449
0.732457
0.56587
0.692164
0.812385
0.454334
0.57051
0.484413
0.473133
0.340582
0.299386
0.437396
0.379838
0.724293
0.254894
0.20405
0.137662
0.0562098
0.246945
-0.138184
-0.266857
-0.867957
-0.804629
-0.703045
-0.427175
-0.573599
-0.398987
-0.0385524
-0.143477
-0.884987
-0.980277
-1.14562
-1.14158
-1.11402
-1.05906
-1.16396
0.861116
0.982593
0.989074
0.932075
0.715492
0.82994
0.935392
0.59538
0.703009
0.563545
0.50735
0.31522
0.2443
0.421594
0.333671
0.95849
0.184317
0.111949
0.032037
-0.0548288
0.168665
-0.254047
-0.36527
-0.739086
-0.77678
-0.768468
-0.718517
-0.63397
-0.525222
-0.466283
-0.145138
-0.238798
-0.848862
-0.948101
-1.14154
-1.09374
-1.02661
-0.530527
-0.648127
-1.1056
1.04467
1.0306
1.08046
1.07375
1.01536
0.802668
0.890819
0.962635
0.652545
0.734732
0.571612
0.461958
0.242915
0.15151
0.35555
0.240811
1.1054
0.0890942
0.00816839
-0.0719283
-0.150756
0.0641797
-0.329432
-0.412251
-0.617551
-0.65989
-0.661259
-0.625082
-0.551708
-0.470927
-0.408378
-0.225906
-0.293253
-0.758829
-0.857466
-1.02968
-0.941841
-0.287554
-0.404288
-0.517566
-0.943964
1.13301
1.0712
1.11908
1.0137
0.805565
0.861331
0.898792
0.634568
0.685241
0.510772
0.376014
0.132231
0.0331136
0.238949
0.112889
1.14802
-0.221185
-0.0178311
-0.0937028
-0.16119
-0.0499315
-0.356204
-0.415028
-0.492429
-0.539477
-0.550965
-0.542116
-0.471901
-0.284589
-0.0313313
-0.171267
-0.269692
-0.311801
-0.620607
-0.724445
-0.834499
-0.136909
-0.242559
-0.344915
0.130884
-0.695234
1.12127
1.04608
1.05034
0.916005
0.722086
0.742539
0.744501
0.541983
0.557959
0.387449
0.233159
0.00326903
-0.0890547
0.0880525
-0.0363853
1.08135
-0.224787
-0.257803
-0.123628
-0.190942
-0.236395
-0.163119
-0.352031
-0.378891
-0.367732
-0.420182
-0.45972
-0.375174
0.215107
-0.165396
-0.0582453
0.0695209
-0.279184
-0.299663
-0.439385
-0.528952
0.0392288
-0.0527828
-0.142585
0.30675
0.369718
-0.385089
1.0026
0.91584
0.895019
0.727274
0.559218
0.543818
0.511825
0.36361
0.382246
0.208687
0.048996
-0.136386
-0.211003
-0.0868062
-0.19034
0.910664
-0.253735
-0.259946
-0.214896
-0.245886
-0.257852
-0.259463
-0.308819
-0.29803
-0.246606
-0.318202
-0.265968
-0.0550615
0.425188
0.289811
0.0452753
0.161494
-0.255287
-0.246247
-0.199658
-0.220851
0.232116
0.150169
0.0886663
0.481772
0.558379
0.525892
-0.0453278
0.786119
0.691837
0.461868
0.331116
0.28107
0.227714
0.120395
0.171866
-0.00828449
-0.188932
-0.269164
-0.317401
-0.268341
-0.314927
-0.362558
0.65142
-0.252315
-0.22805
-0.281458
-0.278446
-0.255712
-0.329818
-0.217865
-0.178516
-0.151446
-0.142313
0.0437042
0.682897
0.137876
0.581057
0.469515
0.356034
0.243644
-0.195985
-0.151622
0.0994191
0.425191
0.361508
0.323332
0.642441
0.67015
0.682166
0.768307
0.289507
0.513868
0.361842
0.149792
0.0554827
-0.0353047
-0.0178461
-0.143325
-0.067595
-0.202867
-0.399365
-0.388165
-0.39072
-0.417045
-0.496443
0.327349
-0.216344
-0.163512
-0.313692
-0.273983
-0.216221
-0.362284
-0.095034
-0.0352281
-0.0196514
0.124876
0.203005
0.735332
0.671372
0.304221
0.592462
0.503915
0.407577
-0.100867
-0.0307965
0.482069
0.603677
0.563447
0.780636
0.790027
0.787003
0.778437
0.831392
0.589615
0.165902
-0.00771134
-0.160314
-0.264054
-0.28662
-0.372583
-0.330283
-0.521851
-0.584557
-0.472533
-0.455728
-0.404799
-0.533563
-0.621733
-0.0295021
-0.144638
-0.0652911
-0.30749
-0.230714
-0.142251
-0.33061
0.0459567
0.126028
0.713337
0.240798
0.335878
0.690103
0.649064
0.449687
0.592566
0.526897
0.0175344
0.103239
0.739872
0.761627
0.900821
0.893577
0.870219
0.714098
0.796141
0.866024
0.82263
-0.207961
-0.492692
-0.353042
-0.425694
-0.513335
-0.598754
-0.566283
-0.68017
-0.719362
-0.521147
-0.471165
-0.38364
-0.608469
-0.702753
-0.384516
-0.0398207
0.0507367
-0.230964
-0.12103
-0.00757719
-0.27228
0.585395
0.188411
0.276828
0.622245
0.641679
0.359244
0.43153
0.493482
0.640304
0.619396
0.53973
0.586527
0.145969
0.236252
0.90461
0.908081
0.979356
0.959169
0.921144
0.689064
0.783918
0.865435
0.524196
0.969982
-0.547231
-0.683472
-0.673356
-0.764959
-0.843647
-0.776296
-0.817005
-0.79695
-0.549598
-0.450692
-0.321927
-0.635074
-0.722012
-0.702897
0.0796852
0.177023
-0.143087
-0.00920325
0.0969763
-0.178228
0.40813
0.473582
0.318848
0.392217
0.535069
0.573376
0.455608
0.508927
0.547367
0.586318
0.584758
0.571915
0.271569
0.355297
1.00244
1.00218
0.977491
0.931872
0.635392
0.737053
0.824844
0.324353
0.436811
1.02064
-0.833373
-0.869058
-0.935023
-0.948955
-0.996623
-0.910197
-0.887222
-0.805776
-0.523804
-0.380873
-0.218429
-0.600931
-0.675203
-0.95377
0.197497
0.29582
-0.0303901
0.105057
0.200108
-0.0562418
0.199626
0.285515
0.375854
0.424654
0.479304
0.45413
0.501862
0.518957
0.542754
0.552371
0.530959
0.551178
0.381628
0.448296
1.00182
0.954792
0.896111
0.549674
0.656541
0.747594
0.103129
0.194887
0.323156
0.971633
-1.03964
-0.994438
-1.08389
-1.07648
-0.969046
-0.881969
-0.743006
-0.446043
-0.271063
-0.0881998
-0.508317
-0.565329
-1.1129
0.308075
0.302802
0.400813
0.100364
0.244259
0.361891
0.0832953
0.288089
-0.118261
-0.0196526
0.0728317
0.183507
0.495453
0.523432
0.365542
0.423958
0.533148
0.525953
0.505186
0.471028
0.465355
0.506405
0.903629
0.814476
0.441998
0.550371
0.646259
-0.0361445
0.0808267
0.201625
0.832578
-0.247083
-1.14567
-1.03821
-1.13625
-1.08574
-0.946334
-0.799685
-0.613056
-0.31896
-0.123598
0.0642989
-0.364086
-0.401097
-1.16541
0.40969
0.479441
0.236831
0.362599
0.451525
0.229242
0.186408
-0.321609
0.0814356
-0.231651
-0.140551
-0.0363382
0.524157
0.520455
0.26798
0.342189
0.497491
0.458333
0.406364
0.514263
0.523073
0.70588
0.314308
0.415856
0.508229
-0.155524
-0.0446912
0.0646044
0.620073
-0.360838
-0.454328
-1.14302
-0.994892
-1.08237
-1.00529
-0.842157
-0.646509
-0.424713
-0.154054
0.0461666
0.223519
-0.179752
-0.194702
-1.10681
0.493918
0.521162
0.364938
0.461458
0.507655
0.368878
-0.565096
-0.491304
0.081021
-0.0132891
-0.419111
-0.126175
-0.340956
-0.237408
0.507121
0.469825
0.176821
0.265845
0.414598
0.345516
0.522472
0.495521
0.459375
0.163445
0.265318
-0.271091
-0.174886
-0.0813112
0.358695
-0.656297
-0.459883
-0.526669
-0.600009
-1.0248
-0.865856
-0.90407
-0.662625
-0.433312
-0.192116
0.0329853
0.222261
0.377244
0.0342372
0.0494848
-0.944627
0.530155
0.52461
0.543659
0.470205
0.520802
0.489303
-0.621186
-0.69726
-0.568815
-0.0122268
-0.117854
-0.21615
-0.50966
-0.319103
-0.427935
-0.72179
0.444802
0.37527
0.0955073
0.196967
0.290964
0.487545
0.424912
0.208183
-0.00889145
0.0588412
-0.38479
-0.305345
-0.231363
0.0776052
-0.545726
-0.707503
-0.682447
-0.594087
-0.639557
-0.704461
-0.812692
-0.664541
-0.633211
-0.422504
-0.173753
0.0705444
0.233053
0.391934
0.511565
0.265303
0.296026
-0.695522
0.531701
0.485934
0.545214
0.55788
0.555609
0.575275
0.582195
-0.673789
-0.726673
-0.636612
-0.0924024
-0.210138
-0.315035
-0.405671
-0.58695
-0.487285
-0.697066
-0.729803
0.341995
0.242739
0.0237859
0.135216
0.411453
0.314906
-0.0679361
-0.212185
-0.487965
-0.433493
-0.361761
-0.193833
-0.61819
-0.651882
-0.705361
-0.696764
-0.67758
-0.676356
-0.651575
1.13865
-0.536146
-0.404396
-0.325346
-0.144768
0.104818
0.333502
0.419922
0.54009
0.614693
0.466325
0.509439
-0.385497
0.490278
0.407292
0.521241
0.565387
0.599397
0.63578
0.568845
-0.159531
-0.717506
-0.748174
-0.691771
-0.27825
-0.394282
-0.490842
-0.559739
-0.645951
-0.614423
-0.685391
-0.730478
-0.534415
0.203947
0.0834827
-0.038773
0.291412
0.1751
1.15483
1.14631
-0.329937
-0.451551
-0.582884
-0.52901
-0.429037
-0.674191
-0.690338
-0.699288
-0.692329
-0.700205
-0.429869
-0.637919
-0.491334
-0.598493
-0.551661
-0.289006
1.12013
1.12829
1.1367
-0.211034
-0.0989403
-0.0308023
0.147252
0.377659
0.555837
0.581826
0.654481
0.677984
0.631409
0.677747
-0.0458674
0.461138
0.376993
0.263999
0.50523
0.60518
0.647513
0.524883
-0.219857
-0.339275
-0.752918
-0.761837
-0.741388
-0.456217
-0.560114
-0.628526
-0.731204
-0.66102
-0.609999
-0.672345
-0.725284
-0.504139
-0.372733
-0.223342
0.041237
-0.0928087
0.143454
0.023143
-0.0637113
0.372044
1.16877
1.16144
1.15277
1.14465
1.13346
-0.536577
-0.61606
-0.654786
-0.60569
-0.709175
-0.710522
-0.703695
-0.688514
-0.666624
0.0970361
-0.354877
-0.587191
-0.540789
-0.420439
-0.483825
-0.133729
0.0243663
-0.204817
0.253046
0.417085
1.0991
1.1084
1.11736
1.12525
1.12128
1.04373
1.11386
0.110173
0.212385
0.433061
0.609191
0.726958
0.700959
0.695966
0.725861
0.749731
0.799498
0.289791
0.382228
0.243333
0.104681
0.411893
0.567484
0.614727
0.445651
-0.259215
-0.391809
-0.503898
-0.778925
-0.767381
-0.780237
-0.77535
-0.602863
-0.680697
-0.734568
-0.578129
-0.647949
-0.706978
-0.456506
-0.313948
-0.158604
-0.134816
-0.00147858
-0.112523
0.00164191
0.150214
0.286141
0.41525
0.479724
0.984393
1.02541
1.18054
1.17334
1.16199
1.15066
1.09529
1.10978
1.13856
1.12603
1.07328
1.06098
-0.670693
-0.709389
-0.708626
-0.720948
-0.710509
-0.689598
-0.660326
-0.628206
0.178536
-0.529057
-0.272127
-0.475471
-0.413437
-0.343148
-0.0428063
0.110463
-0.119384
0.323534
0.47576
0.535288
0.59671
1.00905
0.937324
0.96854
0.696643
0.772049
0.883975
0.819731
1.07542
1.09989
1.08658
1.10181
1.02416
1.10128
1.07576
1.05309
1.08804
1.07441
1.09113
0.417018
0.499505
0.663257
0.780944
0.849987
0.666324
0.778072
0.748884
0.832174
0.885024
0.588548
0.263087
0.101765
-0.0577358
0.2934
0.490154
0.539317
0.332563
-0.295738
-0.412267
-0.546493
-0.64219
-0.795457
-0.764608
-0.804385
-0.797153
-0.716031
-0.768066
-0.537708
-0.609687
-0.675329
-0.403972
-0.253515
-0.0902435
-0.255168
-0.211173
0.0542439
0.900876
0.201441
0.3396
0.840895
0.474803
0.541082
0.656625
0.757625
0.947281
0.996351
1.0385
1.1903
1.18473
1.17631
1.09712
1.1651
1.15287
1.11846
1.13792
1.09036
1.07467
-0.728491
-0.724549
-0.731462
-0.692945
-0.654099
-0.614726
-0.575646
0.254015
-0.464453
-0.405202
-0.187447
-0.338379
-0.263525
-0.0197268
0.188234
0.0688511
0.394655
0.520214
0.582502
0.641553
0.990067
0.921469
0.949755
0.738417
0.86649
0.808514
1.04892
1.06094
1.08517
1.06768
1.07582
1.00302
1.03011
1.07918
1.05373
1.06479
1.06585
0.590206
0.704775
0.837191
0.896517
0.93441
0.719638
0.804189
0.859092
0.906768
0.822739
0.120988
-0.0593636
-0.234994
0.153817
0.377846
0.427003
0.193987
-0.401288
-0.548295
-0.66457
-0.746412
-0.725234
-0.804437
-0.77928
-0.820666
-0.818543
-0.794321
-0.489392
-0.688332
-0.640095
-0.568441
-0.34928
-0.192102
-0.0355211
-0.395548
-0.397337
0.11252
0.897349
0.254941
0.398144
0.831104
0.776272
0.5335
0.600134
0.703509
0.951841
1.00425
1.05098
1.19811
1.1768
1.19404
1.187
1.11367
1.16489
1.1506
1.13281
1.10424
1.08524
1.17433
-0.713954
-0.691604
-0.67644
-0.59799
-0.623463
-0.53999
-0.511486
-0.393251
0.314997
-0.331776
-0.258053
-0.0927021
-0.180506
0.0134813
0.0618287
0.139171
0.230429
0.446387
0.555903
0.62094
0.678665
0.968765
0.902915
0.928178
0.755904
0.853073
0.807724
1.01951
1.03423
1.04928
1.05424
0.979235
1.04711
1.00563
1.02668
1.05475
1.04146
1.03898
0.642198
0.475375
0.907288
0.956853
0.974908
0.94805
0.776459
0.850297
0.884476
0.67314
0.971238
-0.0334547
-0.216301
-0.393465
0.000733127
0.238385
0.284865
0.0398995
-0.544111
-0.663943
-0.760821
-0.813455
-0.753175
-0.806157
-0.829256
-0.833143
-0.131153
-0.665845
-0.441667
-0.595753
-0.522192
-0.294756
-0.194177
0.0137286
-0.53776
-0.515622
0.16506
0.894763
0.3103
0.456978
0.828303
0.586835
0.751193
0.652562
0.951371
1.00019
1.03116
1.06268
1.2008
1.2041
1.18588
1.19615
1.12719
1.16139
1.14544
1.11471
1.09061
1.1813
1.16984
-0.630803
-0.554246
-0.46217
-0.512842
-0.540459
-0.401793
-0.294583
-0.252333
0.36696
-0.177905
-0.0964559
-0.0178414
0.119329
0.20296
0.282857
0.485655
0.587931
0.650651
0.707798
0.946156
0.907915
0.882224
0.774238
0.832904
0.987129
1.00409
1.02609
1.0209
0.954109
0.979027
1.01661
0.999553
1.0155
1.02967
1.00902
0.529693
0.329159
1.00322
0.998575
0.976498
0.910546
0.766198
0.79798
0.585012
1.02166
-0.190798
-0.492167
-0.356707
-0.157208
0.0813768
0.122731
-0.119868
-0.666752
-0.758735
-0.821645
-0.839713
-0.734591
-0.799594
-0.830308
-0.0999744
-0.639212
-0.550806
-0.394754
-0.45702
-0.248184
0.063207
-0.627244
-0.607662
0.215781
0.889484
0.36676
0.518345
0.630266
0.814496
0.709969
0.949894
0.996574
1.0492
1.20234
1.20583
1.20834
1.19232
1.20051
1.13688
1.15795
1.12143
1.09356
1.06486
1.18589
1.17237
-0.30579
-0.479088
-0.382335
-0.36514
-0.415998
-0.240623
-0.1701
-0.0956066
0.411719
-0.0150073
0.0637894
0.177109
0.259146
0.338289
0.521287
0.616202
0.673816
0.727914
0.923286
0.885712
0.845984
0.793618
0.951552
0.970685
0.988581
0.989039
0.926724
0.950722
0.969766
0.984285
0.955917
0.984709
0.997398
0.977312
0.385386
0.168986
1.00166
0.922442
0.810757
0.636443
0.657682
0.436532
0.972899
-0.336936
-0.593151
-0.475876
-0.307004
-0.0847746
-0.0454997
-0.27513
-0.713574
-0.784596
-0.82415
-0.838868
-0.824383
-0.714153
-0.78709
-0.164783
-0.0407539
-0.609266
-0.519368
-0.41799
-0.306204
0.111864
-0.705978
-0.694392
0.275552
0.882267
0.462238
0.592469
0.702334
0.799706
0.955498
1.02287
1.20581
1.20921
1.21087
1.21168
1.19603
1.20296
1.14594
1.16027
1.12547
1.09639
1.05544
1.18872
1.17463
-0.149702
-0.182262
-0.204982
-0.283878
-0.2553
0.022616
-0.0838048
-0.0126722
-0.000323533
0.0656014
0.456181
0.14516
0.227817
0.312784
0.388381
0.569678
0.639747
0.685172
0.749237
0.896557
0.859747
0.81144
0.897124
0.912642
0.932703
0.95266
0.931384
0.953436
0.870491
0.824988
0.920166
0.938368
0.950928
0.952424
0.932559
0.96025
0.949661
0.214335
-0.00298991
0.900585
0.796931
0.656017
0.462583
0.47395
0.248658
0.833241
-0.461274
-0.677407
-0.574401
-0.445193
-0.242364
-0.211947
-0.415213
-0.779583
-0.683631
-0.820959
-0.83179
-0.81292
-0.760294
-0.582583
-0.152763
-0.0053348
-0.484755
-0.381882
-0.27044
0.156852
-0.769759
-0.755128
-0.737049
0.276967
0.371228
0.466684
0.87037
0.565385
0.676641
0.780385
0.931575
1.00419
1.0429
1.20799
1.21074
1.2108
1.21079
1.19643
1.20351
1.15055
1.16451
1.12516
1.08731
1.18432
-0.0503385
-0.0652814
-0.0908492
-0.12906
0.126827
0.209347
0.0952009
0.0680316
0.138908
0.148776
0.216831
0.496216
0.287768
0.363193
0.43398
0.580758
0.69162
0.640554
0.741038
0.785136
0.868366
0.826443
0.888951
0.866384
0.890442
0.916586
0.908245
0.906009
0.846708
0.775984
0.802236
0.905828
0.916751
0.922565
0.914436
0.921351
0.0297898
-0.179261
0.726041
0.643203
0.469332
0.263247
0.264272
0.0454487
0.620544
-0.573542
-0.658027
-0.719195
-0.558723
-0.363429
-0.38763
-0.533863
-0.811059
-0.671122
-0.819532
-0.796818
-0.746496
-0.556754
-0.45408
-0.120271
0.00956614
-0.346859
-0.231731
0.237676
0.0987145
-0.797073
-0.780301
-0.761559
0.387643
0.527575
0.851903
0.647367
0.756578
0.914523
0.995823
1.05539
1.20831
1.20823
1.2091
1.20849
1.19509
1.20175
1.14813
1.17003
1.12032
1.08535
1.18315
1.16935
0.0645349
0.0587028
0.218773
0.288481
0.358871
0.187791
0.227128
0.212592
0.268974
0.28126
0.33724
0.527813
0.405193
0.471433
0.596514
0.736278
0.644228
0.692606
0.872824
0.782289
0.839362
0.811196
0.859005
0.842244
0.873311
0.863995
0.86735
0.823403
0.723506
0.752354
0.784124
0.881445
0.885799
0.886698
0.879914
0.845651
-0.160767
-0.345049
0.484022
0.25119
0.0473806
0.0390008
-0.16048
0.359202
-0.669473
-0.738426
-0.643684
-0.499379
-0.514211
-0.625821
-0.804116
-0.648313
-0.778994
-0.724593
-0.532703
-0.427137
-0.314032
-0.0600881
-0.193137
0.339423
0.191391
0.0648829
-0.786912
-0.769168
-0.752287
0.482632
0.610671
0.829151
0.728659
0.893063
0.967742
1.03184
1.20396
1.20492
1.2056
1.20584
1.19178
1.19768
1.14846
1.11344
1.07039
1.17823
1.16089
0.227637
0.458107
0.344074
0.413734
0.300515
0.346241
0.34538
0.383308
0.384946
0.441578
0.556418
0.502317
0.604795
0.644262
0.757629
0.729128
0.688246
0.840022
0.784029
0.814428
0.828926
0.809802
0.667834
0.835961
0.826254
0.814323
0.696492
0.732724
0.751075
0.608873
0.847585
0.845758
0.842295
0.808918
-0.336543
-0.488511
0.196477
0.0113855
-0.165867
-0.182669
-0.340967
0.0775513
-0.713327
-0.739104
-0.696479
-0.605654
-0.614264
-0.684038
-0.759447
-0.623443
-0.701241
-0.50638
-0.402886
-0.285297
-0.158329
-0.0360667
0.434335
0.288534
0.128829
-0.740582
-0.728155
-0.721636
0.568314
0.689698
0.809515
0.889691
0.939684
1.00407
0.522657
1.20051
1.19789
1.19994
1.20044
1.18588
1.19081
1.00532
1.05428
1.13527
1.10128
1.16984
1.15151
0.499719
0.369972
0.485324
0.425194
0.462328
0.40502
0.439427
0.43109
0.445037
0.471704
0.474148
0.526457
0.582784
0.635269
0.674892
0.755155
0.719257
0.806111
0.77864
0.79616
0.769515
0.771979
0.644697
0.793414
0.783536
0.770685
0.692209
0.710521
0.546623
0.579663
0.803274
0.798774
0.760283
-0.490946
-0.601156
-0.0703985
-0.191369
-0.364133
-0.35909
-0.512756
-0.193954
-0.725177
-0.713593
-0.713199
-0.673927
-0.678759
-0.704518
-0.681179
-0.600763
-0.487038
-0.380673
-0.261262
-0.128873
0.0336601
0.381609
0.235241
-0.663912
-0.668089
-0.663583
0.647976
0.759531
0.856057
0.939837
0.471192
0.602951
1.19507
1.19388
1.18998
0.978633
1.19272
1.19332
1.17681
1.18124
1.03798
1.08548
1.12607
1.15799
0.48422
0.498809
0.449903
0.49567
0.477946
0.472588
0.501701
0.492578
0.506634
0.536426
0.517959
0.521435
0.580482
0.623861
0.658303
0.690493
0.746103
0.715714
0.769424
0.761249
0.720169
0.731426
0.735626
0.616956
0.752211
0.740802
0.726326
0.644203
0.665621
0.481466
0.513481
0.551857
0.744318
0.702338
-0.605164
-0.674349
-0.340047
-0.492568
-0.625556
-0.540087
-0.429264
-0.704136
-0.657054
-0.696391
-0.70138
-0.701159
-0.691628
-0.574139
-0.456356
-0.367265
-0.241813
-0.105591
0.028294
0.163349
0.318101
-0.59436
-0.584129
-0.578205
0.718292
0.817963
0.905122
0.42447
0.553054
0.672593
1.18943
1.18771
1.18504
1.18017
0.947788
1.01201
1.18321
1.16473
1.16871
1.06526
1.10902
1.14097
0.418028
0.457219
0.474603
0.494582
0.492179
0.499742
0.504658
0.514422
0.540683
0.536529
0.574839
0.516675
0.535758
0.606485
0.637596
0.664074
0.662266
0.687916
0.727988
0.697628
0.725484
0.681854
0.701608
0.6983
0.413583
0.574566
0.714464
0.698153
0.683134
0.598883
0.621654
0.450367
0.49782
0.678006
0.596623
0.637563
0.343096
-0.67898
-0.704924
-0.538612
-0.617208
-0.689552
-0.666267
-0.605739
-0.650756
-0.575899
-0.647977
-0.68739
-0.682389
-0.648695
-0.481923
-0.356274
-0.227297
-0.0878011
0.0436565
0.195709
0.359234
-0.479721
-0.47328
-0.460892
0.777436
0.869905
0.913026
0.494171
0.619788
0.727024
1.18223
1.17696
1.17614
1.17396
1.1683
0.982889
1.03977
1.16771
1.14921
1.15258
1.0863
1.1225
0.313385
0.368042
0.426671
0.462477
0.488561
0.502088
0.501102
0.492599
0.486634
0.561179
0.584095
0.5185
0.542142
0.610044
0.631166
0.649833
0.62346
0.666056
0.690269
0.668998
0.657552
0.562028
0.582208
0.37849
0.527129
0.651738
0.635836
0.554835
0.58205
0.412931
0.450969
0.523329
0.608051
0.564739
0.307407
0.270123
-0.710016
-0.692455
-0.704735
-0.670318
-0.718415
-0.722412
-0.708077
-0.572366
-0.493507
-0.570405
-0.633247
-0.62585
-0.574764
-0.354891
-0.21788
-0.07505
0.0576042
0.155766
0.294755
0.430217
-0.350276
-0.343949
-0.340121
-0.375324
0.828465
0.881285
0.947962
0.564022
0.675995
0.758567
1.16251
1.16957
1.16672
1.16158
1.15433
1.0104
1.06071
1.1515
1.13481
1.13052
1.10029
0.185815
0.246814
0.28476
0.350533
0.402334
0.444097
0.477057
0.462254
0.450478
0.440762
0.475559
0.5574
0.516499
0.593802
0.604769
0.616137
0.593491
0.629398
0.612415
0.528763
0.489736
0.553758
0.341576
0.288184
0.413092
0.483468
0.574742
0.519806
0.372509
0.409187
0.443687
0.482879
0.524854
0.235299
0.19526
-0.0881565
-0.0982828
-0.128734
-0.698902
-0.639348
-0.730681
-0.702204
-0.704765
-0.730357
-0.463054
-0.342469
-0.486536
-0.545646
-0.537105
-0.512318
-0.213913
-0.0680292
0.0748276
0.510062
0.227567
0.395149
-0.2128
-0.214623
-0.233373
-0.241097
0.833614
0.909237
0.976919
0.617243
0.751485
1.14605
1.15326
1.15479
1.15291
1.14615
1.13816
1.03116
1.07428
1.13406
1.12138
1.11017
-0.17233
-0.220325
-0.261857
-0.285297
-0.281523
-0.244691
-0.173997
0.0521359
-0.0722364
0.112803
0.0940572
0.176539
0.252565
0.317921
0.373289
0.421163
0.401728
0.393177
0.378321
0.423308
0.466858
0.512224
0.55538
0.556576
0.557968
0.545424
0.55381
0.465989
0.386098
0.50472
0.239409
0.330784
0.289616
0.358749
0.440703
0.474811
0.33157
0.374497
0.394314
0.434987
0.187377
0.1574
0.118659
-0.0847452
-0.0718651
-0.101445
-0.105645
-0.140045
-0.642727
-0.550561
-0.704263
-0.643345
-0.643178
-0.675019
-0.371313
-0.249885
-0.434282
-0.393008
-0.424401
-0.412558
-0.0673086
0.0814524
0.226922
0.532773
0.386384
-0.0702299
-0.081874
-0.113989
-0.0987213
0.857469
0.938426
0.997485
0.682142
0.607766
0.805203
0.764453
1.12869
1.13615
1.13921
1.13881
1.12895
1.11962
1.04482
1.08082
1.1174
1.10338
1.11
-0.188704
-0.233422
-0.273767
-0.279568
-0.286406
-0.269076
-0.212872
-0.127595
-0.0205522
0.0161116
0.0676669
0.143425
0.2151
0.279429
0.338882
0.334599
0.291838
0.298245
0.349621
0.399908
0.451274
0.496637
0.489615
0.485084
0.479052
0.39437
0.429372
0.320291
0.434785
0.242966
0.198066
0.269214
0.251197
0.301556
0.381979
0.306918
0.340289
0.137702
0.0799421
0.113792
0.0409829
-0.0588128
-0.0229286
-0.059258
-0.118477
-0.547105
-0.431142
-0.615226
-0.543704
-0.540119
-0.552403
-0.30347
-0.262593
-0.1297
-0.296159
-0.275726
-0.284187
0.0781244
0.225466
0.36971
0.497678
0.574792
0.0121225
0.0691938
0.0533365
0.0359228
0.893718
0.959855
1.01112
0.69497
0.845293
0.794382
1.11766
1.12161
1.12117
1.1184
1.10939
1.09852
1.0508
1.07886
1.09757
1.09249
1.09791
-0.176857
-0.226011
-0.264263
-0.283269
-0.277175
-0.243731
-0.181512
-0.0925204
-0.0497791
0.0309344
0.103301
0.16988
0.23344
0.241024
0.180118
0.195527
0.257177
0.313901
0.3727
0.41
0.393758
0.316771
0.347616
0.238484
0.346112
0.152303
0.175851
0.167724
0.205184
0.222467
0.242464
0.281486
0.0839855
0.00411615
0.0399021
0.0238232
-0.0377336
0.0012372
0.0550859
0.00734349
-0.0444168
-0.108595
-0.416067
-0.286419
-0.470104
-0.397011
-0.38029
-0.160055
-0.16004
0.00248796
-0.13007
-0.147454
-0.132242
0.216358
0.361628
0.504444
0.636623
0.105012
0.17112
0.201729
0.183347
0.917947
1.01749
0.974192
0.737378
0.872039
0.820314
1.10243
1.1029
1.10052
1.09872
1.0871
1.07478
1.04917
1.07233
1.07843
1.08213
1.06135
-0.17428
-0.231307
-0.270546
-0.285762
-0.27285
-0.281235
-0.230195
-0.157767
-0.131705
-0.0735756
-0.00798126
0.0534861
0.116679
0.129682
0.0581745
0.0866967
0.149753
0.213458
0.27838
0.303799
0.217187
0.263668
0.290342
0.138618
0.241631
0.0587092
0.0795591
0.105868
0.130881
0.141062
0.181912
0.05326
-0.00105632
-0.0377417
-0.0771555
-0.0657834
-0.0481586
-0.117088
0.0925788
0.157412
0.0499161
-0.0207213
-0.101745
-0.150611
-0.227756
-0.207378
-0.260553
-0.180195
-0.0311732
-0.0236563
-0.0145445
1.01617
0.115241
0.0323893
0.0293955
0.34742
0.481117
0.582315
0.675064
0.239446
0.239234
0.298616
0.306946
0.325734
0.93206
0.983498
0.986055
0.766962
0.886536
0.836514
1.0832
1.08027
1.07586
1.06093
1.04832
1.01895
1.03984
1.05434
1.04157
1.06278
1.04128
-0.269617
-0.178863
-0.241399
-0.107521
-0.293904
-0.290458
-0.260253
-0.219844
-0.167527
-0.115109
-0.0620284
-0.00391467
-0.000357551
-0.0646665
-0.268775
-0.0743301
-0.00483173
0.0401992
0.103233
0.17085
0.185572
0.117279
0.193519
0.0392507
0.124158
-0.0401669
-0.0178232
0.00460455
0.033277
0.0705809
-0.0180533
-0.0858247
-0.152436
-0.109618
-0.157951
-0.133823
-0.196355
0.160657
0.206718
0.279339
0.0874852
-0.00527351
0.221178
-0.0893706
-0.0580901
-0.0635833
-0.0693992
-0.0750333
0.0240886
0.102266
0.108215
0.117198
0.111069
1.00758
0.171229
0.204131
0.463075
0.599098
0.708381
0.317454
0.346257
0.379964
0.411612
0.435869
0.946449
0.9748
0.785483
0.891991
0.843657
1.05969
1.05235
1.04177
1.03182
0.9865
1.00204
1.02494
1.01944
1.0388
1.01651
-0.298627
-0.188982
-0.102724
-0.0118923
-0.309179
-0.291448
-0.240913
-0.24415
-0.209514
-0.171752
-0.119668
-0.177124
-0.138366
-0.296825
-0.152233
-0.0765937
-0.012097
0.0537194
0.0124708
0.0708025
0.0927912
-0.0621919
0.00188383
-0.140989
-0.113619
-0.0964926
-0.0748991
-0.0418495
-0.0949193
-0.167139
-0.235815
-0.228734
-0.21541
-0.20304
-0.27535
0.313655
0.415244
0.125135
0.270198
0.37694
-0.0991445
-0.0863649
-0.0728864
0.0854911
0.0907339
0.108014
0.209786
0.220863
0.229705
0.244396
0.255666
0.359604
0.992179
0.311076
0.325636
0.735315
0.557232
0.664882
0.404589
0.43579
0.466367
0.498502
0.528128
0.93334
0.957843
0.793636
0.888899
0.842328
1.03082
0.950903
1.01801
1.00707
0.967308
0.980502
0.999644
0.993085
1.00904
0.986964
-0.326209
-0.16051
-0.0550722
0.0746753
-0.326599
-0.294225
-0.227469
-0.284526
-0.264843
-0.224033
-0.266809
-0.247411
-0.243948
-0.335892
-0.195133
-0.134719
-0.0695541
-0.0834868
-0.0280238
-0.161093
-0.121676
-0.223179
-0.208895
-0.193369
-0.179735
-0.160824
-0.261159
-0.300327
-0.314869
-0.277168
-0.290049
-0.281623
-0.353614
-0.39269
0.479871
0.55493
0.22179
0.498175
0.364341
-0.130232
-0.103874
-0.0233792
-0.0601197
0.22127
0.246469
0.298681
0.398924
0.328446
0.333372
0.346664
0.365864
0.422328
0.458514
0.499594
0.969584
0.43539
0.72367
0.632351
0.506268
0.535838
0.568279
0.600842
0.919465
0.938451
0.792099
0.876466
0.832501
0.497638
0.996893
0.912063
0.932526
0.978996
0.950628
0.968217
0.963342
0.975086
0.954705
-0.35841
-0.128689
-0.00119918
0.148231
-0.347584
-0.300857
-0.216672
-0.338114
-0.323638
-0.347027
-0.333164
-0.32133
-0.340455
-0.303592
-0.382988
-0.256684
-0.191807
-0.172103
-0.230208
-0.29376
-0.237532
-0.29659
-0.288146
-0.277573
-0.265375
-0.357663
-0.358663
-0.36147
-0.353421
-0.356293
-0.430683
-0.46966
-0.431127
0.610548
0.695083
0.308036
0.610979
0.462688
-0.173608
-0.14171
-0.0897116
0.0541288
0.0140833
-0.0384492
0.156805
0.349564
0.389582
0.408719
0.46723
0.413567
0.424403
0.442332
0.46875
0.487218
0.484024
0.497961
0.417831
0.940892
0.534647
0.746457
0.686587
0.571035
0.589337
0.62015
0.655322
0.914921
0.896153
0.785668
0.855861
0.817663
0.536484
0.564941
0.958724
0.894609
0.869832
0.91458
0.935449
0.882816
0.936617
0.932758
0.937325
0.917815
-0.395612
-0.0981094
0.0512179
0.217844
-0.372251
-0.308975
-0.207799
-0.398399
-0.404943
-0.415522
-0.404751
-0.406906
-0.374872
-0.434985
-0.32724
-0.38283
-0.291771
-0.37059
-0.337975
-0.379036
-0.374727
-0.363156
-0.432779
-0.437085
-0.436776
-0.430389
-0.430749
-0.506148
-0.543379
-0.507317
-0.579436
0.827888
0.733452
0.679729
0.397745
0.534717
-0.192843
-0.221017
-0.173147
-0.0996184
-0.0259429
0.105748
0.0366035
0.27894
0.212821
0.45145
0.465877
0.511083
0.477311
0.491239
0.49426
0.313193
0.501182
0.457665
0.479025
0.365796
-0.245156
0.553079
0.906686
0.593414
0.731734
0.621171
0.652699
0.688987
0.881313
0.862746
0.779349
0.831112
0.802356
0.577626
0.60424
0.915376
0.85021
0.824335
0.853281
0.886669
0.907969
0.890158
0.894974
0.87897
-0.436831
-0.0677547
0.10873
0.285716
-0.393589
-0.312655
-0.201909
-0.45511
-0.462884
-0.480073
-0.490281
-0.494533
-0.479104
-0.487617
-0.424604
-0.464049
-0.452895
-0.418254
-0.50542
-0.466509
-0.468169
-0.511943
-0.511931
-0.509756
-0.507887
-0.579689
-0.615955
-0.581605
-0.646774
0.949008
0.844167
0.765121
0.598421
0.406608
-0.28189
-0.285491
-0.262202
-0.234329
-0.203322
-0.148829
-0.0683886
0.0262713
0.41484
0.137705
0.332412
0.236919
0.496522
0.504594
0.531732
0.516004
0.497624
0.500738
-0.174036
0.185653
-0.0719242
0.0522222
0.239193
0.480219
0.427916
0.264226
0.345176
-0.217154
-0.269208
0.549778
0.572527
0.867583
0.633344
0.739424
0.664974
0.700896
0.845767
0.825674
0.771441
0.799984
0.598602
0.626559
0.865529
0.819914
0.801648
0.775328
0.823425
0.862295
0.84306
0.848568
0.831013
-0.481805
-0.103003
0.0336829
0.201668
-0.400891
-0.314276
-0.20179
-0.555903
-0.52485
-0.551295
-0.566978
-0.566839