<VTKFile type="UnstructuredGrid" version="0.1" byte_order="LittleEndian">
<UnstructuredGrid>
<Piece NumberOfPoints="2986" NumberOfCells="5740">
<PointData Scalars="abs_term_u">
<DataArray type="Float64" Name="real_part_term_u" format="ascii">
0.434831
0.473075
0.49408
0.488743
0.445638
0.317674
0.380971
0.493237
0.501117
0.497198
0.151955
-0.0462732
0.497526
0.461907
0.390781
0.235565
0.298521
0.503726
0.412537
0.342072
0.377536
0.269366
0.194773
0.437893
0.339259
0.467935
0.477246
0.494195
0.476928
0.487148
-0.451145
-0.255489
0.0569873
-0.144538
0.482436
0.308265
0.417003
0.172017
0.478754
0.507648
0.501638
0.480399
0.447303
0.413678
0.545461
-0.707004
-0.608474
-0.0634807
-0.730717
-0.671969
-0.323626
-0.532333
0.302246
0.343722
0.339895
0.22767
0.118346
0.154782
0.21336
0.390099
0.277554
0.418587
0.434634
0.450864
0.465382
0.431985
0.438301
-0.533588
-0.345888
-0.187388
-0.022676
0.45172
0.221547
0.345877
0.0938911
0.510264
0.516572
0.485963
0.471767
0.512825
0.350245
0.51439
0.479966
0.421374
0.481857
0.578017
0.60745
-0.726991
-0.664467
-0.602022
-0.260505
-0.0715599
-0.711723
-0.613732
-0.439395
-0.726742
0.0776193
0.263548
0.265117
0.177962
0.0405504
0.0793808
0.113514
0.149859
0.325254
0.206941
0.279203
0.294384
0.355435
0.44041
0.407312
0.374035
0.364969
0.385235
0.373946
0.385857
0.384309
0.387552
-0.471193
-0.304431
-0.102823
0.415383
0.320195
0.199487
0.0439586
0.480888
0.470267
0.4729
0.465099
0.531773
0.513538
0.459231
0.514785
0.54634
0.524472
0.360813
0.426954
0.372834
0.451543
0.522506
0.54074
0.492864
0.531047
0.610977
0.637877
0.666361
-0.695341
-0.583663
-0.321716
-0.0973663
-0.67389
-0.54233
-0.485423
-0.704424
-0.719832
-0.0513782
-0.159562
-0.236788
0.0110902
0.178818
0.192525
0.107828
-0.0380351
0.00163526
0.0474164
0.0878195
-0.00746712
0.247024
0.130829
0.452955
0.437189
0.386094
0.377178
0.372092
0.371675
0.300578
0.211015
0.225782
0.376735
0.299357
0.272176
0.345597
0.321384
0.267065
0.286671
0.30281
0.300083
0.290444
0.26457
-0.416702
-0.245045
-0.0734919
0.369975
0.247427
0.0969416
0.530117
0.54005
0.54161
0.536221
0.541241
0.499357
0.421456
0.56284
0.568208
-0.502613
0.594036
0.591304
0.449351
0.500733
0.441719
0.451301
0.451381
0.593475
0.523865
0.589522
0.561272
0.565436
0.648549
0.671463
0.695134
0.722055
-0.678773
-0.589422
-0.32572
-0.13772
-0.630098
-0.51993
-0.70371
-0.709303
-0.174856
-0.279105
-0.285654
-0.223147
-0.263846
-0.258338
-0.110379
-0.200669
-0.0855886
0.103183
0.120501
0.0244153
-0.1171
-0.0766189
-0.0333639
0.020223
-0.0746694
0.161629
0.0472873
0.361107
0.333972
0.306264
0.287987
0.281847
0.23853
0.143153
0.163491
0.280847
0.225851
0.201419
0.175691
0.243908
0.222615
0.18657
0.203465
0.202916
0.178154
0.156532
-0.348788
-0.178421
-0.00578268
0.308858
0.162917
0.376077
0.580099
0.595618
0.609343
0.539678
0.474647
0.594672
0.579073
0.642203
-0.454206
0.65614
0.649856
0.526435
0.529946
0.53004
0.658072
0.597388
0.631367
0.620075
0.611972
0.693502
0.71018
0.721935
0.750342
0.774321
-0.653004
-0.545574
-0.371822
-0.192819
-0.647159
-0.557201
-0.705579
-0.691314
-0.0987138
-0.130412
-0.141945
-0.088459
-0.191309
-0.282587
-0.285383
-0.273982
-0.239335
-0.283195
-0.276371
-0.240466
-0.173746
-0.160935
0.050026
-0.196285
-0.0243775
0.0146472
-0.0514898
-0.156527
-0.114964
-0.0590152
-0.152362
0.0663955
-0.0427343
0.259162
0.228324
0.206513
0.191065
0.0765434
0.094681
0.177816
0.119415
0.0978807
0.0809236
0.134646
0.113944
0.0936508
0.0878971
-0.0113796
0.0641598
0.0446016
-0.281506
0.659073
0.440527
-0.115244
0.058344
0.237524
0.336125
0.621739
0.641873
0.52926
0.616028
0.584856
0.685189
-0.399599
0.692344
0.711554
0.706061
0.609172
0.607933
0.718783
0.668829
0.680958
0.662214
0.67252
0.738242
0.754069
0.823089
0.768943
0.800161
-0.616296
-0.492845
-0.447355
-0.256659
-0.67034
-0.615326
-0.703227
-0.665539
-0.13975
-0.085451
-0.10254
-0.092265
-0.0720781
-0.19559
-0.27768
-0.241813
-0.272612
-0.286075
-0.273178
-0.22978
-0.227171
-0.275171
-0.0148505
-0.0461607
-0.235772
-0.0801181
-0.119683
-0.195982
-0.176476
-0.141996
-0.224407
-0.0269007
-0.131942
0.150171
0.11557
0.103781
0.0118022
0.0296179
0.072056
0.00358066
-0.00298898
-0.0168074
-0.106465
0.0256912
-0.010115
-0.0331088
-0.124001
-0.0466085
-0.0640796
-0.228313
0.673351
0.699288
0.479012
0.390999
-0.0541297
0.110422
0.260578
0.654
0.551314
0.624336
0.728019
-0.337225
0.86852
0.737152
0.756751
0.756473
0.6823
0.774576
0.733269
0.722106
0.727727
0.792655
0.772907
0.811006
0.848683
0.829025
-0.5702
-0.431389
-0.458195
-0.56723
-0.327561
-0.656251
-0.689939
-0.632031
-0.693785
-0.148134
-0.0886902
-0.0577979
-0.0364973
-0.0233032
-0.18262
-0.240068
-0.245723
-0.283101
-0.293819
-0.27509
-0.282093
-0.35326
-0.314348
-0.0678131
-0.104112
-0.141489
-0.276568
-0.183594
-0.240004
-0.221717
-0.294
-0.119827
-0.217263
0.0350603
0.000404173
-0.0456825
-0.108029
-0.0386147
-0.102429
-0.118412
-0.181655
-0.196916
-0.112556
-0.14519
-0.201502
-0.14836
-0.158494
-0.16165
0.694117
0.729796
0.460495
0.333953
0.0168838
0.184422
0.539237
0.671321
0.623236
0.764914
-0.264178
0.890251
0.910678
0.798447
0.785861
0.806259
0.757552
0.845125
0.825112
0.793648
0.782427
0.843639
0.824942
0.864176
0.876619
0.907242
-0.516245
-0.362417
-0.481156
-0.598437
-0.40462
-0.660808
-0.686936
-0.700485
-0.58842
-0.675834
-0.0976122
-0.0300618
0.00700357
0.0351449
0.0539533
-0.107974
-0.186106
-0.201432
-0.265186
-0.301923
-0.308219
-0.326472
-0.430238
-0.391918
-0.353517
-0.15018
-0.192975
-0.241525
-0.326451
-0.286245
-0.302438
-0.346557
-0.344117
-0.211477
-0.290317
-0.0801909
-0.121322
-0.188185
-0.15103
-0.21881
-0.217463
-0.27964
-0.283634
-0.227303
-0.248203
-0.245917
-0.0826484
0.713129
0.754053
0.42043
0.2649
0.0978521
0.43712
0.527894
0.615674
0.678199
0.792322
-0.183234
0.932824
0.949438
0.833049
0.835927
0.877777
0.815964
0.870508
0.848499
0.890577
0.846462
0.870435
0.910758
0.934289
-0.456222
-0.290198
-0.539466
-0.576567
-0.480706
-0.684416
-0.707633
-0.703701
-0.652956
-0.0239408
0.0525949
0.0932498
0.117297
0.156972
-0.0165746
-0.115817
-0.141111
-0.230548
-0.295365
-0.357622
-0.329178
-0.505654
-0.468311
-0.430443
-0.415096
-0.240663
-0.291039
-0.338494
-0.382165
-0.37055
-0.386468
-0.381216
-0.403078
-0.364418
-0.301703
-0.196847
-0.240892
-0.286528
-0.260868
-0.316933
-0.370197
-0.314245
-0.372837
-0.370851
-0.3316
-0.350365
0.00376182
0.724031
0.770028
0.330412
0.186197
0.378989
0.491781
0.591869
0.67243
0.811624
-0.0938234
0.960789
0.969612
0.984995
1.01726
0.853951
0.872013
0.93357
0.907924
0.908981
0.873468
0.896902
0.915202
0.900355
0.951329
0.958475
-0.395549
-0.190768
-0.613872
-0.484308
-0.633304
-0.553075
-0.717903
-0.724716
-0.703871
-0.655623
0.0826159
0.166214
0.205875
0.27857
0.0970847
-0.0260629
-0.0683722
-0.178973
-0.270276
-0.339782
-0.579119
-0.542865
-0.506185
-0.468176
-0.491751
-0.445496
-0.332655
-0.387078
-0.427091
-0.650253
-0.424141
-0.419289
-0.382769
-0.4669
-0.439441
-0.389253
-0.380391
-0.309905
-0.345196
-0.368019
-0.419056
-0.464256
-0.426357
-0.410649
-0.466461
-0.455045
-0.433591
0.0948714
0.776371
0.726358
0.27223
0.433773
0.553482
0.655001
0.819799
0.00703915
-0.0474909
1.04657
1.03223
0.986518
1.00318
0.864602
0.895522
0.972977
0.931736
0.940987
0.939048
0.923698
0.945639
0.983966
0.974933
0.997368
1.07303
-0.329956
-0.159486
-0.569029
-0.428664
-0.68609
-0.620006
-0.750015
-0.739873
-0.708457
-0.639455
0.20686
0.28746
0.333955
0.413459
0.227479
0.0898401
0.0236915
-0.110352
-0.227738
-0.317482
-0.615217
-0.579816
-0.539258
-0.575739
-0.51909
-0.428864
-0.480608
-0.683515
-0.718763
-0.380544
-0.469388
-0.441848
-0.521064
-0.510258
-0.47279
-0.469663
-0.423745
-0.471674
-0.514674
-0.550502
-0.547398
-0.494084
-0.502914
-0.544895
-0.527741
0.186121
0.780702
0.72113
0.354663
0.500374
0.617278
0.816553
0.0930789
0.0103334
1.06013
1.0474
1.02292
0.863677
0.914133
1.00739
0.950397
0.965765
0.973185
0.968691
1.01862
0.998502
1.0313
1.0845
1.09669
-0.267728
-0.0943959
-0.521502
-0.373831
-0.676491
-0.741539
-0.780015
-0.774948
-0.74941
-0.703692
-0.612981
0.342656
0.440024
0.555548
0.356754
0.215741
0.348006
0.108028
-0.0266236
-0.170317
-0.293409
-0.651138
-0.618718
-0.656654
-0.613002
-0.573154
-0.522275
-0.712177
-0.749191
-0.78429
-0.366783
-0.451438
-0.503487
-0.565833
-0.572241
-0.550462
-0.559062
-0.531339
-0.569232
-0.600005
-0.616556
-0.620773
-0.593896
-0.589115
-0.625833
0.272656
0.753984
0.666582
0.43325
0.563488
0.799227
0.181364
0.0862319
0.850576
1.07121
1.0549
1.09153
0.908696
0.947903
1.03797
0.981536
0.999536
1.00414
1.04336
1.03105
1.0614
1.10766
1.11765
-0.720796
-0.203942
-0.0231357
-0.479766
-0.31596
-0.787071
-0.791405
-0.750876
-0.689782
-0.577018
0.479269
0.597314
0.69494
0.466347
0.405245
0.248009
0.071322
-0.0955344
-0.246451
-0.702502
-0.728325
-0.690989
-0.660386
-0.618896
-0.846533
-0.772537
-0.812759
-0.335695
-0.448987
-0.525804
-0.600468
-0.625965
-0.623067
-0.658302
-0.628331
-0.689565
-0.658
-0.677799
-0.687681
-0.68954
-0.673256
-0.689555
-0.749769
0.35457
0.717011
0.61831
0.499462
0.773666
0.826366
0.260057
0.157353
0.898091
1.08508
1.10736
0.95081
0.989717
1.06339
1.0172
1.02985
1.05993
1.05468
1.0867
1.12132
1.12772
1.13618
-0.750999
-0.809058
-0.136414
0.0481252
-0.429988
-0.255812
-0.811477
-0.775412
-0.74138
-0.667673
-0.539999
0.827513
0.603592
0.734599
0.946663
0.546617
0.371745
0.182807
-0.00456149
-0.18624
-0.782857
-0.799896
-0.754598
-0.727178
-0.718052
-0.873985
-0.905473
-0.844924
-0.30255
-0.436619
-0.546768
-0.636366
-0.6691
-0.685837
-0.751672
-0.716177
-0.751782
-0.737206
-0.748972
-0.776201
-0.743834
-0.791848
-0.806155
0.423026
0.676554
0.557137
0.738575
0.876421
0.792638
0.709638
0.227961
0.331582
0.941629
1.12524
1.10943
0.990955
1.0266
1.08358
1.05358
1.07484
1.10731
1.13549
1.14439
1.15232
1.13959
1.16616
-0.76687
-0.766908
-0.824944
-0.823474
-0.0607785
0.118482
-0.378145
-0.195043
-0.777303
-0.712478
-0.633464
-0.494705
0.859376
0.715479
0.651323
0.966185
1.04895
0.498916
0.304835
0.102001
-0.12455
-0.278185
-0.850924
-0.866429
-0.817758
-0.782274
-0.810167
-0.902888
-0.933462
-0.960853
-0.906539
-0.416986
-0.537023
-0.637698
-0.70396
-0.750314
-0.833693
-0.794326
-0.812756
-0.808246
-0.851304
-0.806968
-0.844524
-0.864552
0.485368
0.606954
0.921223
0.843077
0.749232
0.65647
0.29141
0.396387
0.98231
1.13065
1.02751
1.05998
1.0991
1.08359
1.12235
1.15003
1.15947
1.14969
1.17196
1.17789
-0.0635396
-0.255064
-0.191729
-0.0708064
-0.0966313
-0.13759
-0.67543
-0.619014
-0.33084
-0.553298
-0.404296
-0.481028
-0.511098
-0.720696
-0.75212
-0.831266
-0.826467
-0.830046
-0.777223
0.203024
0.0265456
-0.325836
-0.139024
-0.690857
-0.593428
-0.452062
-0.0896496
0.820189
0.664013
0.928377
1.12744
1.05078
0.432412
0.218908
0.00502105
-0.200457
-0.375259
-0.91569
-0.884795
-0.928879
-0.868124
-0.888887
-1.01226
-0.952879
-0.987358
-0.964812
-0.52072
-0.642808
-0.722527
-0.779707
-0.81712
-0.906189
-0.868264
-0.872594
-0.919851
-0.867509
-0.924284
-0.905015
0.556653
0.965013
0.886096
0.801197
0.687855
0.349639
0.453517
1.0199
1.143
1.05962
1.08952
1.10985
1.13216
1.17558
1.16505
1.16001
1.18216
1.18769
1.19549
1.01044
0.977136
-0.260622
-0.323551
-0.428841
-0.411903
-0.360043
-0.288961
-0.320381
-0.773197
-0.732488
-0.690676
-0.558673
-0.615993
-0.64192
-0.598775
-0.812559
-0.819353
-0.801515
-0.824727
-0.769814
-0.676836
0.221682
0.0528162
-0.273645
-0.0868479
-0.53911
-0.391232
-0.0999429
-0.0866429
-0.0730815
0.791126
0.57107
0.919078
1.1806
1.12782
1.20915
1.01675
0.330645
0.105924
-0.111829
-0.310104
-0.485932
-0.975732
-0.939268
-0.984223
-0.943931
-0.958927
-1.05987
-1.03688
-1.02171
-1.0153
-1.10345
-0.628
-0.730506
-0.80446
-0.850932
-0.969221
-0.938492
-0.972758
-0.926578
-0.977242
-0.958433
0.597202
0.905114
0.826261
0.727605
0.328886
0.405135
0.50412
0.938584
1.05104
1.18305
1.15069
1.08799
1.13684
1.115
1.17543
1.16616
1.20145
1.19846
1.19106
1.03351
1.00652
-0.532244
-0.451531
-0.553579
-0.550408
-0.477169
-0.489322
-0.783312
-0.757531
-0.729914
-0.649871
-0.665408
-0.681206
-0.704517
-0.7787
-0.758977
-0.801496
-0.785153
-0.736285
-0.65336
-0.524594
0.208633
0.0648503
-0.221491
-0.0745068
-0.371562
-0.0241195
-0.131509
-0.105579
-0.0590225
0.400803
1.20993
1.18349
0.740712
0.524865
0.860547
1.16498
1.08268
1.17313
0.961527
0.211355
-0.0184902
-0.238177
-0.435394
-0.597352
-1.02948
-0.988538
-1.02849
-1.00872
-1.01837
-1.08254
-1.06095
-1.07315
-1.06769
-1.1244
-1.1429
-0.725906
-0.817992
-0.883593
-0.947332
-1.01699
-1.00814
-1.01755
-0.993174
-0.999408
-1.17824
0.642351
0.854952
0.754904
0.339906
0.447784
0.547641
0.894147
0.971692
1.07865
1.18679
1.15434
1.13891
1.1156
1.17916
1.16905
1.20331
1.20571
1.19996
1.19455
1.0354
1.06102
-0.672097
-0.624119
-0.582773
-0.645505
-0.651495
-0.623788
-0.629228
-0.766549
-0.749506
-0.69357
-0.732824
-0.698293
-0.706007
-0.717879
-0.705868
-0.686152
-0.730406
-0.72345
-0.623684
-0.503506
-0.348936
0.208058
0.0482806
-0.137455
0.0537284
-0.175946
0.00636305
-0.143189
-0.0948989
-0.0370852
1.12813
0.300872
1.15724
1.10463
0.658028
0.421732
0.773898
1.05713
1.05472
0.860248
0.0729498
-0.156502
-0.373968
-0.56677
-0.707167
-1.0733
-1.06447
-1.06079
-1.06523
-1.10829
-1.11693
-1.11516
-1.14376
-1.16302
-1.19397
-0.81842
-0.914584
-0.992915
-1.05494
-1.04262
-1.05328
-1.03476
-1.20938
0.679508
0.798291
0.354064
0.477915
0.584657
0.839019
1.00095
0.919704
1.10415
1.18918
1.15567
1.1346
1.17996
1.16859
1.20822
1.20293
1.20638
1.19779
1.06061
1.08581
1.20902
-0.730247
-0.712925
-0.685627
-0.692117
-0.694309
-0.704409
-0.696558
-0.711759
-0.702596
-0.691979
-0.695124
-0.689554
-0.691208
-0.606079
-0.596872
-0.627632
-0.610459
-0.485509
-0.332411
-0.149198
0.201986
0.0280473
-0.224097
0.156581
0.0944696
-0.191933
0.0207823
-0.14433
-0.0689082
1.04871
1.06222
0.946969
0.180097
0.955008
0.969602
1.02414
0.952095
0.541137
0.297338
0.647686
0.887639
0.870508
0.719615
-0.0605864
-0.305676
-0.525354
-0.675067
-0.804503
-0.491005
-1.10056
-1.11514
-1.10972
-1.11472
-1.15146
-1.15637
-1.15399
-1.18299
-1.22333
-1.21153
-0.902515
-0.980673
-1.03948
-1.09183
-1.08912
-1.07676
-1.23638
0.733469
0.366151
0.502641
0.616686
0.83302
1.02957
0.964762
0.899263
1.12503
1.18897
1.15578
1.17677
1.20817
1.20287
1.2058
1.196
1.08086
1.10653
1.20815
1.20814
-0.705959
-0.725815
-0.724733
-0.703906
-0.711732
-0.712065
-0.659739
-0.645284
-0.61432
-0.616112
-0.635621
-0.601983
-0.62701
-0.473065
-0.47176
-0.46859
-0.463772
-0.316615
-0.144302
0.03789
0.210191
-0.238649
-0.264614
0.278881
0.205624
0.414345
0.122796
-0.197136
-0.238123
0.0176871
-0.140399
-0.0774893
0.961171
0.555045
0.856506
0.826749
0.694777
0.0473132
0.839159
0.836142
0.807214
0.801846
0.675256
0.406692
0.153654
0.505658
0.653919
-0.189368
-0.39741
-0.631978
-0.776665
-0.889631
-0.577744
-1.1263
-1.14191
-1.15511
-1.15297
-1.18822
-1.18737
-1.18835
-1.24766
-1.21919
-1.23442
-0.975977
-1.03135
-1.083
-1.13145
-1.12567
-1.25921
0.38502
0.741914
0.523609
0.639176
0.848666
1.00117
1.05023
0.941164
1.1413
1.18446
1.16702
1.20626
1.20161
1.19101
1.0968
1.12263
1.20559
1.20649
1.20557
-0.607501
-0.661763
-0.450151
-0.695168
-0.654381
-0.670918
-0.670673
-0.583718
-0.567993
-0.552531
-0.485303
-0.492452
-0.467834
-0.535767
-0.509978
-0.310325
-0.306416
-0.306606
-0.318367
-0.135725
0.0407118
0.232065
-0.285702
-0.273269
0.334272
0.239133
0.469861
0.198662
-0.260672
0.0775746
-0.207884
-0.0375706
-0.132398
0.801892
0.599942
0.737547
0.732441
0.679531
-0.090426
0.682273
0.640383
0.607538
0.5499
0.454172
0.257334
0.00394099
0.359636
-0.314431
-0.513338
-0.974322
-0.736809
-0.87125
-0.686342
-1.16017
-1.18044
-1.18782
-1.21008
-1.21829
-1.21438
-1.26928
-1.25959
-1.24631
-1.25218
-1.05486
-1.12179
-1.16725
-1.17141
-1.2779
-1.2854
0.405099
0.536148
0.773279
0.655275
0.880498
0.838748
1.00933
1.06407
0.958282
1.15322
1.17594
1.20236
1.195
1.18247
1.10815
1.13379
1.20122
1.20344
1.203
1.20132
-0.532781
-0.596139
-0.345696
-0.255162
-0.278418
-0.0463426
0.152012
-0.57944
-0.566486
-0.592793
-0.475242
-0.465089
-0.445936
-0.423069
-0.335618
-0.346515
-0.359606
-0.393674
-0.135567
-0.136192
-0.166338
-0.142051
0.0404992
0.199549
0.319023
-0.28543
-0.280711
0.342047
0.486653
0.241721
0.129907
-0.27975
-0.249811
0.00598334
-0.192729
-0.105001
0.643303
0.601489
0.468092
0.504618
0.503276
-0.227877
0.475682
-0.167731
0.432309
0.375187
0.297309
0.201847
0.0689546
-0.440326
-0.628342
-1.04668
-0.955482
-0.83433
-0.787001
-1.19683
-1.21665
-1.23146
-1.24078
-1.2755
-1.26384
-1.27014
-1.1069
-1.15373
-1.1842
-1.19718
-1.20266
-1.29236
-1.29317
-1.29822
0.434679
0.542499
0.665044
0.76684
0.910063
0.863823
1.02361
1.07418
0.975554
1.16427
1.17587
1.19587
1.1863
1.11529
1.14155
1.19437
1.1991
1.19809
1.19529
-0.446513
-0.280164
-0.14449
-0.263573
-0.236793
0.0669031
0.246669
0.31764
-0.431261
-0.428923
-0.354288
-0.346681
-0.32546
-0.297491
-0.26803
-0.188538
-0.206179
-0.237731
-0.0196078
0.0370791
0.0566239
0.00696155
0.208446
0.367049
-0.280254
-0.243151
0.342057
0.177965
-0.283959
0.0430019
-0.280293
-0.246794
-0.0706508
-0.182823
0.470714
0.353378
0.347324
0.331312
0.305947
-0.371626
0.262625
-0.149878
-0.328033
0.202707
0.131642
0.0495325
-0.0374376
-0.564075
-1.096
-0.731302
-1.03516
-0.919806
-0.870584
-1.22884
-1.24662
-1.27158
-1.25717
-1.28806
-1.2828
-1.15104
-1.20269
-1.22207
-1.23038
-1.30268
-1.30081
-1.30266
-1.3073
0.535253
0.663786
0.778688
1.08294
0.828289
0.87475
0.932495
1.03558
0.986418
1.16748
1.18542
1.18422
1.11769
1.14315
1.19024
1.19238
1.19096
1.18739
-0.281327
-0.134257
0.0304293
-0.207156
-0.159594
-0.0516892
0.194255
0.437504
0.492618
0.434801
0.493497
0.32015
0.392515
-0.275488
-0.2502
-0.228944
-0.195272
-0.16729
-0.134383
-0.103112
-0.0459885
-0.0743622
0.120601
0.146576
0.219225
0.253575
0.189207
0.371289
0.527104
-0.188983
-0.252886
0.217118
0.0710308
-0.275137
-0.290612
-0.0532033
-0.289082
-0.272726
-0.227382
-0.155199
0.234619
0.167638
0.141119
0.0973165
-0.509017
0.0394258
-0.279989
-0.46913
-0.0281585
-0.106988
-0.193151
-0.672018
-1.11357
-1.07385
-0.816031
-0.993119
-0.923284
-1.25444
-1.2827
-1.27188
-1.29669
-1.29207
-1.17255
-1.21844
-1.24084
-1.25233
-1.30883
-1.31043
-1.30564
-1.30874
-1.31059
0.657977
0.777851
1.0874
1.05692
0.876134
0.956483
1.02135
1.15727
1.1736
1.17413
1.17966
1.1161
1.14181
1.1834
1.1839
1.182
1.1776
1.16584
-0.12643
0.027868
0.179792
0.0772026
-0.113579
-0.134534
0.00745053
0.213217
0.340217
0.416629
0.30838
0.470988
0.499995
0.474232
0.399034
0.464869
-0.111441
-0.0929618
-0.068363
-0.0328681
3.77737e-05
0.0311494
0.0621205
0.0905473
0.249301
0.283019
0.311981
0.368827
0.343211
0.514842
0.646501
-0.191844
-0.246713
0.0793175
-0.0527139
-0.284127
-0.30431
-0.157543
-0.307472
-0.28619
-0.236518
0.0645689
0.0135591
0.0108311
-0.06872
-0.108245
-0.622677
-0.175354
-0.414142
-0.576057
-0.253352
-0.36626
-0.766694
-1.13118
-1.07772
-0.9096
-1.00832
-1.27373
-1.2897
-1.29993
-1.30633
-1.18619
-1.22886
-1.25243
-1.2675
-1.3109
-1.31074
-1.30998
-1.31103
-1.30888
0.763976
0.861367
1.08545
1.05402
0.943733
1.01201
1.16046
1.16747
1.17044
1.08562
1.11124
1.13826
1.17348
1.17507
1.17118
1.16315
1.15874
1.15194
0.0365512
0.17704
0.303474
0.133237
-0.123672
-0.0553619
0.0501241
0.251962
0.350907
0.427264
0.401789
0.48469
0.498209
0.466082
0.492587
0.0460296
0.0649959
0.0939959
0.127711
0.162205
0.19616
0.2219
0.36565
0.395396
0.428917
0.461153
0.490482
0.626937
0.747178
-0.200736
-0.26414
-0.0670985
-0.1767
-0.301409
-0.32702
-0.258449
-0.331931
-0.310414
-0.100988
-0.140714
-0.221834
-0.256234
-0.304954
-0.714522
-0.378791
-0.665556
-0.545311
-0.457109
-0.547533
-0.84286
-0.94487
-1.14294
-1.0866
-1.01556
-1.28648
-1.29838
-1.3035
-1.30769
-1.19342
-1.23396
-1.25875
-1.27673
-1.30883
-1.30644
-1.30854
-1.3067
-1.30353
0.846475
0.928019
1.05082
0.997198
0.83337
1.15913
1.15115
1.15593
1.06996
1.10164
1.12921
1.16288
1.15215
1.14999
1.14376
1.13577
0.177914
0.301878
0.408746
0.160938
-0.134455
-0.0262788
0.0733172
0.266059
0.356461
0.428352
0.468137
0.468044
0.49752
0.498619
0.188567
0.213849
0.244384
0.279951
0.317718
0.365
0.46224
0.491399
0.529145
0.563349
0.596233
0.732208
0.822885
-0.218528
-0.28784
-0.209092
-0.291649
-0.330062
-0.358582
-0.358455
-0.367037
-0.257055
-0.316875
-0.379013
-0.426133
-0.479626
-0.784604
-0.553934
-0.693715
-0.628626
-0.924827
-1.01954
-1.14786
-1.09047
-1.29835
-1.29364
-1.30263
-1.30363
-1.20129
-1.23486
-1.25843
-1.27928
-1.30264
-1.29768
-1.30143
-1.29854
0.909549
0.978418
1.02856
0.887914
1.11728
1.14182
1.14029
1.05215
1.08779
1.11576
1.14535
1.13655
1.13507
1.12641
-0.155976
0.29704
0.383735
0.486812
0.454447
0.170392
-0.0548628
0.0586032
0.267719
0.355931
0.423914
0.473189
0.505221
0.500358
0.318941
0.349825
0.377456
0.41504
0.457058
0.511646
0.564844
0.609469
0.647551
0.679555
0.861722
0.783016
-0.242529
-0.312728
-0.338
-0.391335
-0.364455
-0.424387
-0.397552
-0.414097
-0.396187
-0.463023
-0.514785
-0.568665
-0.632211
-0.849961
-0.704717
-0.776349
-0.954428
-1.01959
-1.08738
-1.14619
-1.2922
-1.29554
-1.29446
-1.18462
-1.22338
-1.2514
-1.2746
-1.29232
-1.28596
-1.28717
-1.27995
-1.28856
0.952852
1.00498
0.92757
1.10687
1.09625
1.12488
1.12012
1.03694
1.07025
1.09743
1.12734
1.11739
1.11359
-0.0807857
-0.182553
0.894406
0.402847
0.464707
0.516395
0.502445
0.165674
0.0440149
0.268272
0.353148
0.423242
0.475247
0.506869
0.430321
0.460519
0.493415
0.530794
0.576278
0.623005
0.674721
0.714074
0.74999
0.830912
-0.0203439
-0.273813
-0.348857
-0.448545
-0.474006
-0.405395
-0.467174
-0.441646
-0.526222
-0.578015
-0.600351
-0.62756
-0.689778
-0.759126
-0.897687
-0.832615
-1.02179
-0.986436
-1.07706
-1.13701
-1.28218
-1.2843
-1.26941
-1.17094
-1.20739
-1.23778
-1.26259
-1.27779
-1.27155
-1.27292
-1.26026
-1.26984
-1.25815
0.987116
0.948715
1.09566
1.08414
1.07254
1.02018
1.09638
1.10397
1.04898
1.0759
1.10583
1.09561
1.08272
1.08954
-0.106674
-0.215652
0.867472
0.917775
0.488693
0.522528
0.517297
0.532224
0.174789
0.0673242
0.265014
0.348661
0.422064
0.480008
0.517761
0.558574
0.579349
0.62217
0.667881
0.716941
0.757931
0.809063
0.607624
-0.0286466
-0.311726
-0.393953
-0.533655
-0.527069
-0.452841
-0.495949
-0.599976
-0.663015
-0.663858
-0.860575
-0.718292
-0.789889
-0.939215
-1.05402
-1.01833
-1.11989
-1.26476
-1.25043
-1.15612
-1.18733
-1.21668
-1.24208
-1.25921
-1.24877
-1.25483
-1.23545
-1.24623
-1.23883
0.99236
0.963398
0.941546
1.04614
1.07123
1.05789
1.02439
1.07577
1.05071
1.08142
1.0753
1.06199
1.06243
1.02944
-0.142144
-0.258164
0.869501
0.910477
0.547994
0.484204
0.553323
0.533736
0.163283
0.0621074
0.255523
0.342977
0.422906
0.614169
0.57903
0.653801
0.69868
0.740286
0.782118
0.824617
0.649469
-0.0508755
-0.359754
-0.444595
-0.585424
-0.556364
-0.510652
-0.64858
-0.922196
-0.729508
-0.71406
-0.864566
-0.79849
-0.986615
-0.961057
-1.08016
-1.04327
-1.12726
-1.23562
-1.22307
-1.16064
-1.18905
-1.21523
-1.23639
-1.20567
-1.2239
-1.22801
-1.21696
-1.21149
0.997259
0.967043
0.935461
1.01679
1.03939
1.02155
1.0426
1.05529
1.04088
1.03198
0.997943
1.01342
-0.179558
-0.311344
0.873253
0.903525
0.58048
0.421865
0.481922
0.562656
0.528721
0.154444
0.0517036
0.247843
0.340017
0.64275
0.611822
0.679842
0.708656
0.747247
0.788436
0.830651
0.671457
-0.0658402
-0.412815
-0.497657
-0.616343
-0.565775
-0.678703
-0.915103
-0.742426
-0.781788
-0.854794
-1.00573
-0.959926
-1.09106
-1.04957
-1.1255
-1.20861
-1.19662
-1.15514
-1.18163
-1.20939
-1.17307
-1.1826
-1.1956
-1.19275
-1.18513
0.990768
0.958294
0.926406
0.984385
1.0048
1.00794
1.0179
1.02456
0.99898
0.962481
0.972491
-0.162179
-0.26961
-0.368138
0.862373
0.888843
0.344055
0.589704
0.421989
0.491412
0.551052
0.143072
0.0311429
0.239162
0.278805
0.654481
0.624577
0.701163
0.7374
0.828947
0.776739
0.817212
0.679482
-0.0843291
-0.466072
-0.553321
-0.624931
-0.68812
-0.90766
-0.752961
-0.799084
-0.860019
-1.0021
-0.948489
-1.08574
-1.03843
-1.11455
-1.1649
-1.13906
-1.17814
-1.13535
-1.14514
-1.15415
-1.16049
-1.1615
0.974016
0.939097
0.902596
0.948891
0.969765
0.966857
0.984676
0.992523
0.941308
0.925739
0.936159
-0.196966
-0.307831
-0.416231
0.851833
0.864827
0.348109
0.577727
0.419645
0.46959
0.5226
0.1178
0.00270495
0.188547
0.26703
0.645304
0.602853
0.809671
0.713251
0.7497
0.790788
0.774319
0.675624
-0.114048
-0.519195
-0.615151
-0.692484
-0.758548
-0.888822
-0.817631
-0.918413
-0.982344
-1.06779
-1.01721
-1.09042
-1.11117
-1.14278
-1.09562
-1.10463
-1.11141
-1.12037
-1.11817
-1.13462
0.946925
0.908954
0.870386
0.910097
0.936191
0.935381
0.951404
0.885283
0.898521
0.900086
-0.232536
-0.34988
-0.456923
0.822692
0.829527
0.346252
0.547042
0.418728
0.48393
0.0871367
-0.0257132
0.173545
0.261334
0.626455
0.568283
0.7783
0.709783
0.744572
0.735866
0.655661
-0.141794
-0.551277
-0.630127
-0.704712
-0.780375
-0.851659
-0.86688
-0.938948
-1.03765
-0.975777
-1.05319
-1.05844
-1.10334
-1.06112
-1.08036
-1.06478
-1.07041
-1.07721
0.910159
0.87005
0.830033
0.868003
0.901151
0.905943
0.862685
0.843396
0.863593
0.870742
-0.486198
-0.259661
-0.385764
0.781071
0.792595
0.347259
0.501475
0.427446
0.0660721
-0.0475706
0.160634
0.255877
0.591778
0.519655
0.73296
0.686876
0.682476
0.617953
-0.163721
-0.558776
-0.636302
-0.715254
-0.793815
-0.798471
-0.866415
-0.917967
-0.993574
-0.931894
-1.00571
-1.01296
-1.05975
-1.01547
-1.04049
-1.01847
-1.01999
-1.02133
0.865528
0.822652
0.778039
0.822492
0.855908
0.796897
0.820307
0.829696
-0.468829
-0.277275
-0.378491
0.737072
0.350733
0.439054
0.268653
0.0481839
-0.0666548
0.155035
0.461582
0.531877
0.675391
0.626609
0.623267
0.567301
-0.180044
-0.550824
-0.632806
-0.712568
-0.741151
-0.803275
-0.866424
-0.873497
-0.941478
-0.960969
-0.963243
-1.01218
-0.965788
-0.987957
-0.970184
-0.968103
0.811219
0.765912
0.717345
0.773705
0.794185
0.748432
0.76801
0.776448
0.721455
-0.45913
-0.288461
-0.378054
0.663926
0.365108
0.197658
0.279377
0.0302969
-0.0863704
0.115278
0.438794
0.494638
0.613912
0.573637
0.556007
-0.203404
-0.538143
-0.607485
-0.673268
-0.730449
-0.800659
-0.800337
-0.912913
-0.876169
-0.907879
-0.960657
-0.910002
-0.934816
-0.908672
0.748588
0.700882
0.648653
0.721413
0.730293
0.696587
0.711817
0.681892
-0.434879
-0.321585
0.594468
0.345639
0.191873
0.261882
0.0124736
-0.107714
0.110971
0.402877
0.456588
0.545323
0.513884
-0.215604
-0.145883
-0.509796
-0.580445
-0.650507
-0.725548
-0.719789
-0.791999
-0.850159
-0.8467
-0.905476
-0.845544
-0.878384
-0.846783
0.681212
0.628539
0.574801
0.665653
0.665042
0.63542
0.643854
-0.40363
-0.302619
0.519309
0.312471
0.207286
0.127267
-0.00377521
0.364395
0.419133
0.468309
-0.203965
-0.100632
-0.479454
-0.557438
-0.639115
-0.658224
-0.719699
-0.782661
-0.775618
-0.84657
-0.781938
-0.815779
0.607086
0.553082
0.494825
0.607001
0.592257
0.576555
0.571388
-0.380189
-0.278954
-0.0124247
0.434938
0.271663
0.175672
0.0828877
0.32348
0.377889
-0.175604
-0.0718784
-0.457652
-0.532526
-0.596949
-0.580912
-0.645278
-0.704321
-0.716299
-0.718899
-0.784252
-0.751678
0.40709
0.533325
0.473406
0.544931
0.512543
0.518672
0.484069
-0.354977
-0.247437
0.0313485
0.342107
0.230077
0.132544
0.285184
-0.139137
-0.0290358
-0.426629
-0.507464
-0.658923
-0.512636
-0.567612
-0.624418
-0.654277
-0.685121
-0.718802
0.342633
0.394959
0.454204
0.479957
0.431115
0.447646
0.413048
-0.318106
-0.217514
0.287511
0.0804595
0.241863
0.184539
0.026203
-0.105764
-0.365273
-0.435292
-0.59888
-0.48648
-0.547274
-0.574811
-0.615525
-0.650328
0.261205
0.315596
0.371034
0.41205
0.350554
0.376354
-0.284022
-0.188557
0.202912
0.130912
0.0535467
-0.112651
-0.0288634
-0.342269
-0.401991
-0.524296
-0.464093
-0.510158
-0.543662
-0.579243
0.188414
0.232895
0.288238
0.256463
0.34164
0.305482
-0.251386
-0.160004
0.116207
0.0188859
-0.0698195
-0.310631
-0.375824
-0.442756
-0.471302
-0.505743
0.149091
0.201504
0.164749
0.225581
0.268973
-0.21599
-0.120833
0.0623984
-0.0288578
-0.280208
-0.357117
-0.395595
-0.430379
0.105538
0.103107
0.153981
0.194339
-0.174106
-0.0777787
0.0115199
-0.232155
-0.287871
-0.319125
-0.353579
0.0413056
0.0763463
0.117922
-0.179308
-0.116186
-0.0364472
-0.23575
-0.275453
0.00071616
0.0402586
-0.153481
-0.0776611
-0.196713
-0.0383479
-0.117448
</DataArray>
<DataArray type="Float64" Name="imag_part_term_u" format="ascii">
0.645485
0.580757
0.559496
0.483102
0.570252
0.720669
0.666217
0.481474
0.479676
0.36337
0.764402
0.760118
0.349551
0.483129
0.596467
0.734053
0.674974
0.187332
-1.42915
-1.5185
-1.47476
-1.60401
-1.68515
0.428654
0.414602
0.419552
0.353129
0.207142
0.244547
0.0230559
0.568402
0.695958
0.756884
0.727208
0.343293
0.616971
0.491754
0.706602
-0.171911
0.00614681
0.173916
-1.33646
-1.38286
-1.42889
-1.24093
0.151248
0.382194
-0.861555
-0.104213
-0.359102
-0.760417
-0.586254
-1.56652
-1.51742
-1.52306
-1.65049
-1.76183
-1.72632
0.441573
0.385354
0.390583
0.311356
0.200625
0.0554983
-0.391809
-0.31448
-0.156343
0.478395
0.634234
0.687959
0.720211
0.352222
0.63108
0.512117
0.675408
-0.185543
0.0102703
0.188229
-0.533309
-0.367825
-1.51056
-1.28772
-1.33784
-1.4194
-1.33586
-1.19073
-1.14322
0.0280728
0.26814
0.369469
-0.789561
-0.853297
-0.22849
-0.472218
-0.674817
-0.0957014
0.505985
-1.61196
-1.61074
-1.70344
-1.8336
-1.79875
-1.76689
0.431308
0.293936
0.315371
-1.59407
-1.57345
0.163543
-0.706321
-0.623399
0.0130756
-0.178178
-0.497677
-0.340115
-1.15794
-1.05483
-0.920338
0.520951
0.623618
0.672628
0.354103
0.472063
0.58805
0.639451
-0.724801
-0.867963
-0.978986
-1.09319
-0.160848
0.0355275
0.216177
-0.550007
-0.327158
-1.1134
-1.49592
-1.41135
-1.47631
-1.30339
-1.17155
-1.24914
-1.31997
-1.26368
-1.13803
-1.09284
-1.04368
0.164307
0.377485
-0.755813
-0.837172
-0.342145
-0.567437
-0.617504
-0.220538
-0.0354429
0.59319
0.683089
0.754699
0.501859
-1.70322
-1.68869
-1.77292
-1.90002
-1.8674
-1.82792
0.358908
0.395126
0.166806
0.199573
-1.19334
-1.28512
-1.38783
-1.42447
-1.46811
-1.45346
-1.55959
-1.66691
-1.64584
-1.25861
-1.3097
-0.00354616
-0.829301
-0.700932
-0.209582
-0.381278
-0.546676
-1.22514
-1.12822
-1.02774
0.535734
0.609126
0.623394
0.372451
0.498955
0.585657
-0.670506
-0.787053
-0.904569
-1.01397
-0.117667
0.078887
0.254977
-0.470144
-0.261964
0.444679
-0.939237
-1.01683
-1.33778
-1.30653