<VTKFile type="UnstructuredGrid" version="0.1" byte_order="LittleEndian">
<UnstructuredGrid>
<Piece NumberOfPoints="3209" NumberOfCells="6126">
<PointData Scalars="abs_term_u">
<DataArray type="Float64" Name="real_part_term_u" format="ascii">
0.564303
0.570262
0.556696
0.561239
0.568041
0.574532
0.572448
0.573212
0.552685
0.536464
0.547359
0.557455
0.566361
0.523905
0.509767
0.577126
0.576695
0.5704
0.575077
0.577503
0.550344
0.530469
0.541756
0.557538
0.564048
0.518429
0.50267
0.494117
0.57836
0.578026
0.579789
0.579667
0.576738
0.580093
0.58226
0.583249
0.545038
0.530825
0.583593
0.552573
0.573194
0.560834
0.511901
0.495659
0.486208
0.476871
0.458275
0.578408
0.577153
0.574622
0.570414
0.579392
0.582293
0.587363
0.587549
0.588811
0.588901
0.597041
0.538128
0.5225
0.583474
0.548375
0.564879
0.598873
0.506071
0.481204
0.488399
0.466993
0.438124
0.449062
0.416737
0.576772
0.573033
0.564418
0.568599
0.579709
0.584638
0.59135
0.616758
0.614646
0.598288
0.594816
0.596797
0.598344
0.611897
0.531162
0.516439
0.580771
0.544083
0.560603
0.598669
0.617429
0.636325
0.657599
0.5013
0.468606
0.479537
0.452122
0.393964
0.431126
0.405976
0.556849
0.574364
0.56121
0.568346
0.579786
0.586679
0.595089
0.633141
0.628763
0.653555
0.681906
0.676973
0.608591
0.604872
0.60534
0.623515
0.520571
0.579028
0.539068
0.557701
0.597632
0.713491
0.614936
0.636258
0.688425
0.659489
0.494738
0.469191
0.436448
0.452224
0.369932
0.344786
0.382566
0.415641
0.395346
0.318476
0.536713
0.547589
0.552406
0.572598
0.556056
0.56411
0.579858
0.58863
0.708702
0.736972
0.599623
0.640734
0.648193
0.669149
0.701935
0.693941
0.617052
0.613246
0.633695
0.768783
0.514424
0.57739
0.534407
0.554061
0.598681
0.735941
0.69621
0.630356
0.663447
0.460727
0.483518
0.438842
0.425994
0.357846
0.332075
0.370859
0.39946
0.305236
0.262818
0.291104
0.995379
1.00927
0.524221
0.530261
0.542133
0.548731
0.570812
0.558752
0.580145
0.590744
0.510101
0.4945
0.729693
0.760378
0.802849
0.838374
0.791886
0.872887
0.961319
0.934595
0.904857
0.602892
0.648192
0.661903
0.685702
0.720837
0.709799
0.626285
0.616659
0.642536
0.477338
0.989979
0.975209
1.00306
1.00585
0.991815
0.943956
0.913908
0.776729
0.812937
0.882541
0.848613
0.747038
0.509371
0.568808
0.531489
0.60162
0.706912
0.668755
0.633411
0.233642
0.203636
0.481584
0.455101
0.423653
0.404554
0.319774
0.344768
0.373867
0.29529
0.248835
0.277404
0.981504
0.970206
1.007
0.998398
1.0116
0.517598
0.524455
0.535921
0.545223
0.569503
0.556601
0.580779
0.59319
0.502728
0.486615
0.749671
0.780961
0.827795
0.861223
0.811817
0.894694
0.951392
0.925476
0.606579
0.659812
0.700248
0.680449
0.737473
0.721463
0.632594
0.621338
0.651753
0.458693
0.468166
0.477692
0.438646
0.976287
0.953297
1.00034
1.00165
0.996903
0.991114
0.979376
0.922463
0.890708
0.785041
0.821689
0.85713
0.75519
0.715653
0.507009
0.568792
0.535298
0.601142
0.674658
0.636491
0.477939
0.218955
0.172954
0.188453
0.141754
0.110081
0.452893
0.235486
0.423118
0.398741
0.372335
0.316344
0.34261
0.289844
0.262459
0.985285
0.966754
1.009
0.999692
1.01285
0.513181
0.527946
0.54193
0.569113
0.55568
0.582078
0.595351
0.49386
0.768795
0.799319
0.883117
0.845509
0.824236
0.915164
0.942628
0.610497
0.672136
0.700813
0.752838
0.72736
0.63913
0.626482
0.661074
0.448654
0.461713
0.475722
0.417178
0.428568
0.0778813
0.0941544
0.958728
0.931325
0.994965
0.990914
0.991834
0.982808
0.963914
0.898333
0.756322
0.864581
0.79198
0.830351
0.723999
0.680774
0.56653
0.495198
0.533401
0.601089
0.638896
0.452441
0.20421
0.158012
0.17451
0.126263
0.421511
0.229933
0.392031
0.371785
0.34298
0.305794
0.263249
0.462232
0.984584
0.960239
1.00958
1.0006
1.01288
0.509599
0.524754
0.540207
0.555054
0.569989
0.598986
0.585404
0.490651
0.788625
0.901857
0.817309
0.875194
0.84494
0.928466
0.618326
0.775107
0.686871
0.714903
0.743471
0.64313
0.671721
0.394465
0.370517
0.47324
0.441405
0.457473
0.405963
0.423081
0.345289
0.0453746
-0.0198863
0.0127586
-0.0526245
-0.117597
-0.0852417
0.0617416
0.106009
0.0773397
0.938331
0.907027
0.983308
0.982111
0.985365
0.987138
0.982135
0.967595
0.944229
0.871698
0.734663
0.773211
0.832818
0.806409
0.68899
0.643178
0.56566
0.530333
0.49391
0.562167
0.596395
0.42688
0.186451
0.145576
0.388569
0.226737
0.353113
0.309825
0.268863
0.444293
0.989139
0.973148
0.949034
0.998828
1.00944
1.01191
0.50529
0.522562
0.543653
0.562479
0.60252
0.58023
0.469977
0.486602
0.805461
0.898103
0.836648
0.866965
0.918707
0.627512
0.790747
0.759398
0.698811
0.728385
0.654251
0.681066
0.379873
0.358244
0.454878
0.389362
0.432471
0.407229
0.319017
0.33485
0.291722
0.263438
-0.149658
0.029392
-0.0363562
-0.00286964
-0.133559
-0.0687385
-0.101334
0.107989
0.0476112
0.0754011
0.914061
0.877812
0.969653
0.972947
0.978405
0.97674
0.977802
0.974002
0.920421
0.948893
0.835851
0.693744
0.738075
0.790342
0.64861
0.602452
0.529359
0.486492
0.550961
0.392199
0.188398
0.147909
0.352514
0.229112
0.311892
0.270551
0.441589
0.39916
0.98314
0.961999
0.935757
0.991896
1.00612
1.00954
0.501651
0.522538
0.539891
0.608835
0.559204
0.583188
0.457753
0.477664
0.821587
0.885714
0.852978
0.902449
0.634961
0.804906
0.773634
0.741577
0.710466
0.661437
0.689755
0.360478
0.434013
0.383189
0.407199
0.306067
0.323004
0.277996
0.23424
0.249229
0.20428
-0.181304
-0.212407
-0.1651
-0.356772
-0.242913
0.012806
-0.0538225
-0.0226022
-0.150128
-0.118787
-0.0845936
0.0739305
0.105211
0.036667
0.886061
0.843568
0.953397
0.959953
0.965794
0.971443
0.969942
0.97084
0.895133
0.924121
0.79498
0.65502
0.692249
0.741608
0.609599
0.558809
0.499267
0.454978
0.504568
0.353675
0.194188
0.153041
0.313754
0.232242
0.27078
0.406664
0.358189
0.97208
0.947661
0.91878
0.995163
0.980988
1.00412
1.00607
0.502719
0.533928
0.614982
0.587683
0.560698
0.450773
0.426665
0.474874
0.835759
0.869323
0.815585
0.885465
0.64108
0.787468
0.754565
0.721458
0.668779
0.699375
0.352355
0.404984
0.379333
0.323986
0.300187
0.291798
0.261486
0.219531
0.235502
0.173613
0.189302
0.142339
0.110612
-0.0194036
-0.431404
-0.382817
-0.407693
-0.196542
-0.227793
-0.180574
-0.329633
-0.301588
-0.272672
-0.344427
-0.37058
-0.258436
-0.0106808
-0.0587932
-0.152592
-0.107224
0.112483
0.0567422
0.005253
0.853341
0.804544
0.859164
0.932551
0.942366
0.95218
0.959711
0.966489
0.96899
0.96777
0.891884
0.749649
0.635034
0.693454
0.569868
0.584223
0.512942
0.453403
0.408921
0.454829
0.306492
0.167638
0.120156
0.262451
0.2078
0.361261
0.318062
0.968462
0.957844
0.931714
0.900432
0.965896
0.989975
1.00054
1.00196
0.405841
0.504879
0.534142
0.620879
0.593064
0.563385
0.441176
0.475043
0.843943
0.803214
0.865233
0.621643
0.64813
0.767041
0.731242
0.678706
0.7085
0.349902
0.377674
0.324466
0.299893
0.274597
0.240223
0.206936
0.158322
0.17506
0.126549
0.0784285
0.0133883
0.0459831
0.0947035
-0.00293803
-0.0522037
-0.0353134
-0.0847597
-0.117141
-0.453895
-0.475052
-0.49482
-0.443239
-0.420132
-0.396478
-0.215067
-0.242777
-0.197319
-0.318573
-0.288097
-0.336835
-0.356412
-0.379424
-0.27158
-0.176711
-0.0412187
-0.089886
-0.136999
-0.0244272
0.0722281
0.0166433
0.816167
0.760258
0.831763
0.906732
0.920698
0.934818
0.949783
0.962782
0.963716
0.85883
0.699593
0.627784
0.528464
0.5517
0.464428
0.394059
0.34463
0.399192
0.0933555
0.26559
0.153228
0.211438
0.29793
0.95549
0.942489
0.913509
0.879506
0.974307
0.953905
0.98807
0.996036
0.997325
0.376766
0.409501
0.506701
0.537309
0.599343
0.568953
0.444083
0.477949
0.824868
0.783202
0.841675
0.617776
0.657192
0.737137
0.694754
-0.272247
0.339423
0.30067
0.274756
0.246722
0.211603
0.177759
0.144282
0.109685
0.0621702
0.0293642
0.0800041
0.342741
0.0136257
-0.016115
-0.0654598
-0.0440924
-0.242472
-0.211953
-0.180888
-0.149237
-0.101036
-0.133365
-0.474851
-0.494684
-0.356395
-0.301235
-0.32926
-0.453665
-0.431134
-0.382438
-0.407375
-0.599127
-0.591606
-0.582498
-0.571779
-0.559433
-0.545518
-0.513201
-0.530113
-0.465093
-0.485401
-0.504641
-0.454971
-0.434945
-0.408748
-0.241062
-0.217674
-0.200467
-0.31233
-0.352303
-0.390753
-0.28505
-0.168406
-0.0683353
-0.121807
-0.0340447
0.0334529
0.774317
0.711985
0.795497
0.875943
0.894199
0.916132
0.942874
0.816818
0.645982
0.570743
0.481435
0.501663
0.412257
0.325608
0.340729
0.110583
0.0543197
0.22529
0.161413
0.246408
0.918558
0.856139
0.92525
0.892935
0.967314
0.938654
0.983915
0.991288
0.992627
0.987649
0.37739
0.413404
0.510023
0.542545
0.577163
0.448364
0.481462
0.588953
0.800456
0.757942
0.815677
0.629137
0.670444
0.71396
-0.287158
-0.261199
0.303277
0.2615
0.21568
0.180082
0.15425
0.121381
0.0817471
0.0454051
0.345092
0.306813
0.00728035
-0.032413
-0.071505
-0.230387
-0.198791
-0.165672
-0.117147
-0.148964
-0.571678
-0.513074
-0.559331
-0.54541
-0.529988
-0.485393
-0.464861
-0.504584
-0.368594
-0.343253
-0.315635
-0.443722
-0.419834
-0.395065
-0.604975
-0.609148
-0.611647
-0.612476
-0.611628
-0.582436
-0.609093
-0.604894
-0.591568
-0.599054
-0.602817
-0.596195
-0.577597
-0.587531
-0.566325
-0.572098
-0.553191
-0.538743
-0.52268
-0.514931
-0.474092
-0.496164
-0.45741
-0.427358
-0.25754
-0.234021
-0.208315
-0.326366
-0.365693
-0.400926
-0.299449
-0.166979
-0.101032
-0.0799464
-0.0159723
0.727794
0.655864
0.748173
0.838532
0.863123
0.892368
0.770323
0.583456
0.511388
0.426673
0.443849
0.349343
0.26544
0.280827
0.00542892
0.0916362
0.169544
0.187788
0.858702
0.830501
0.87009
0.905835
0.967385
0.918336
0.949005
0.977884
0.984664
0.981098
0.982715
0.380196
0.417888
0.347474
0.513913
0.549163
0.453467
0.484771
0.600353
0.558392
0.773042
0.728617
0.788308
0.641449
0.683107
-0.285397
-0.251024
0.264888
0.2224
0.181533
0.140418
0.093806
0.0434209
0.313353
0.271595
-0.0086577
-0.0551748
-0.0433319
-0.100923
-0.223255
-0.183375
-0.145012
-0.577743
-0.566209
-0.522273
-0.553006
-0.538382
-0.561582
-0.495854
-0.475157
-0.456651
-0.513706
-0.383346
-0.352298
-0.321474
-0.437564
-0.411432
-0.607841
-0.611182
-0.612838
-0.61283
-0.611193
-0.587713
-0.607989
-0.602782
-0.596097
-0.58438
-0.607254
-0.601446
-0.594088
-0.583366
-0.561216
-0.571831
-0.548272
-0.533173
-0.513479
-0.485799
-0.460304
-0.435608
-0.273741
-0.246995
-0.227233
-0.342766
-0.384774
-0.414964
-0.316191
-0.199965
-0.140423
-0.120271
-0.066163
0.675559
0.592357
0.697839
0.796344
0.825768
0.724549
0.513306
0.44188
0.380019
0.352162
0.278481
0.206875
0.223744
-0.0543636
0.0276569
0.108642
0.129676
0.776277
0.804217
0.844448
0.882977
0.896597
0.957588
0.930471
0.966706
0.97066
0.971547
0.976785
0.978567
0.423275
0.373676
0.32466
0.607698
0.511159
0.465618
0.567345
0.526101
0.743961
0.697024
0.760625
0.642868
0.432395
-0.296195
-0.255756
0.14648
0.230043
0.18788
0.0151664
0.104158
0.0597583
0.114613
0.280637
0.236507
-0.0349502
-0.0812335
-0.134122
-0.220661
-0.179643
-0.575257
-0.531411
-0.547157
-0.56881
-0.557596
-0.504841
-0.487935
-0.461593
-0.522055
-0.400635
-0.370761
-0.337826
-0.434042
-0.459423
-0.611479
-0.613956
-0.614695
-0.613578
-0.612077
-0.592913
-0.607859
-0.601456
-0.587851
-0.612347
-0.607452
-0.600841
-0.594781
-0.584779
-0.572415
-0.554454
-0.534992
-0.512795
-0.465482
-0.488967
-0.44598
-0.281454
-0.257295
-0.364055
-0.411742
-0.337225
-0.233377
-0.180354
-0.128645
-0.125544
0.617524
0.525886
0.646198
0.731232
0.668164
0.428772
0.370923
0.302429
0.249617
0.19505
0.156672
-0.0371352
0.0503125
0.0737468
0.673514
0.819228
0.779073
0.85461
0.877977
0.909026
0.941187
0.950187
0.956618
0.965412
0.97283
0.971914
0.975076
0.384989
0.337293
0.29051
0.583662
0.482192
0.528191
0.71295
0.660743
0.73176
0.603589
0.439148
0.396199
-0.323241
-0.289761
-0.257058
0.147837
0.194652
0.0172998
0.0687991
0.105715
-0.0309621
0.241814
0.194595
-0.078086
-0.124957
-0.172264
-0.218132
-0.579992
-0.544199
-0.566611
-0.505255
-0.482422
-0.530601
-0.415872
-0.390175
-0.359248
-0.438392
-0.459696
-0.479354
-0.616173
-0.6177
-0.616992
-0.614719
-0.599844
-0.608709
-0.593607
-0.617546
-0.61264
-0.6066
-0.596836
-0.586373
-0.579166
-0.559691
-0.538932
-0.518294
-0.487304
-0.45871
-0.312127
-0.287485
-0.387162
-0.433932
-0.363048
-0.248446
-0.194444
-0.121289
-0.196834
0.554532
0.456143
0.587783
0.622401
0.369481
0.30948
0.222701
0.153146
0.108561
-0.0248717
0.0278113
0.552307
0.807979
0.756714
0.84137
0.931168
0.882591
0.919906
0.851369
0.942749
0.969786
0.958342
0.967573
0.969195
0.968634
0.344748
0.304464
0.258514
0.543565
0.478996
0.679216
0.621902
0.699838
0.562462
0.409461
0.354295
-0.349114
-0.307932
-0.26228
0.139841
0.0988506
0.0176368
0.0640051
-0.0733157
-0.0274361
0.204234
0.162708
-0.118746
-0.164774
-0.212959
-0.113793
-0.585812
-0.553594
-0.576343
-0.51979
-0.500225
-0.540874
-0.418553
-0.387213
-0.4469
-0.475755
-0.499102
-0.623153
-0.622726
-0.621456
-0.622169
-0.619406
-0.604388
-0.614681
-0.602237
-0.623137
-0.620221
-0.612095
-0.596195
-0.58026
-0.560387
-0.550013
-0.528834
-0.478129
-0.503383
-0.345356
-0.317373
-0.411189
-0.455465
-0.400057
-0.276139
-0.132574
-0.204292
-0.275605
0.369568
0.48467
0.491559
0.280914
0.199863
0.117692
0.0378905
-0.0594253
0.415873
0.783576
0.723961
0.808758
0.838601
0.913554
0.888533
0.92215
0.937515
0.964936
0.953714
0.964208
0.969444
0.290637
0.218209
0.501404
0.438708
0.640264
0.580515
0.658771
0.519945
0.373099
0.309063
-0.381874
-0.337341
-0.293481
-0.249428
0.116035
0.0631743
0.0166366
-0.0718203
-0.0288672
0.151166
-0.15804
-0.202352
-0.145294
-0.112371
-0.596562
-0.56637
-0.58897
-0.523099
-0.555197
-0.424062
-0.465464
-0.504176
-0.628987
-0.629699
-0.630866
-0.630671
-0.626484
-0.616114
-0.615343
-0.635529
-0.629747
-0.618444
-0.603331
-0.582041
-0.565563
-0.544411
-0.494813
-0.52162
-0.380592
-0.356575
-0.457101
-0.431855
-0.348875
-0.214665
-0.164274
-0.283022
-0.355321
0.255778
0.356482
0.167038
0.0807119
0.00422744
-0.0986383
0.26734
0.681382
0.74867
0.775516
0.804976
0.873041
0.896
0.918967
0.94424
0.956284
0.242631
0.174586
0.455024
0.390667
0.596464
0.534406
0.611954
0.472273
0.328401
0.263809
0.341325
-0.410473
-0.369346
-0.326509
-0.283478
-0.240044
0.0790069
0.000991395
-0.0779996
0.10456
-0.185176
-0.236017
-0.149894
-0.610008
-0.583367
-0.602769
-0.541784
-0.575537
-0.489292
-0.450815
-0.527609
-0.639889
-0.643163
-0.641811
-0.634458
-0.630031
-0.653549
-0.648329
-0.640422
-0.629781
-0.615492
-0.599447
-0.582195
-0.514783
-0.56378
-0.541621
-0.418856
-0.486396
-0.424433
-0.206968
-0.271891
-0.366491
-0.434896
0.126509
0.189743
0.0384989
-0.0338761
-0.105176
-0.201235
0.111079
0.634004
0.705714
0.7322
0.766055
0.834929
0.863725
0.893916
0.919394
0.19756
0.130305
0.39709
0.489396
0.544054
0.557319
0.583858
0.425841
0.279426
0.223242
0.309392
-0.442922
-0.401196
-0.359042
-0.319091
-0.274488
0.0314019
-0.0444919
-0.120409
0.0598888
-0.214446
-0.265272
-0.187484
-0.623031
-0.608355
-0.564204
-0.599349
-0.513644
-0.480249
-0.547291
-0.657206
-0.656105
-0.655597
-0.646087
-0.6513
-0.664011
-0.671877
-0.655064
-0.66046
-0.644063
-0.546722
-0.633092
-0.617683
-0.60064
-0.572679
-0.589561
-0.491895
-0.555751
-0.499848
-0.293459
-0.378165
-0.446457
-0.508447
0.0256141
-0.0780421
-0.131092
-0.219266
-0.307263
-0.0487143
0.646933
0.691091
0.726983
0.795669
0.82441
0.859517
0.162032
0.0883125
0.345642
0.476578
0.513976
0.567074
0.382314
0.212629
0.253908
-0.431361
-0.47849
-0.400566
-0.355002
-0.317176
-0.0119956
-0.0847332
-0.157036
0.0175333
-0.248785
-0.2931
-0.225291
-0.641105
-0.633187
-0.586886
-0.623735
-0.523007
-0.568068
-0.67446
-0.675275
-0.66472
-0.671004
-0.687406
-0.671618
-0.683231
-0.69471
-0.669262
-0.685996
-0.669556
-0.611486
-0.65488
-0.633828
-0.624876
-0.562267
-0.622488
-0.57052
-0.391597
-0.465634
-0.52161
-0.579294
-0.132653
-0.217554
-0.32534
-0.41365
-0.207317
0.603868
0.645692
0.665433
0.734361
0.777216
0.121082
0.045424
0.291557
0.425534
0.468457
0.515006
0.331556
0.160877
0.19961
-0.455827
-0.50591
-0.427628
-0.373888
-0.340428
-0.053745
-0.124152
-0.194016
-0.0253263
-0.294077
-0.262516
-0.669472
-0.66011
-0.61106
-0.650628
-0.550868
-0.594623
-0.698848
-0.694186
-0.700194
-0.710515
-0.723973
-0.696075
-0.697337
-0.720579
-0.692011
-0.678696
-0.674309
-0.682282
-0.66758
-0.629308
-0.684787
-0.637316
-0.488948
-0.550169
-0.589433
-0.647141
-0.285716
-0.355554
-0.436845
-0.509719
-0.359998
0.579379
0.625278
0.674382
0.0757817
0.00186701
0.236238
0.37383
0.462452
0.415624
0.278141
0.108357
0.143113
-0.48151
-0.531018
-0.454742
-0.396183
-0.363664
-0.0997311
-0.161688
-0.224263
-0.0771629
-0.329275
-0.297295
-0.694409
-0.687813
-0.640449
-0.682183
-0.581411
-0.633262
-0.727258
-0.727492
-0.728378
-0.74406
-0.754896
-0.72143
-0.736313
-0.760026
-0.726255
-0.735989
-0.72937
-0.719188
-0.744739
-0.694667
-0.710932
-0.581279
-0.644551
-0.725027
-0.439224
-0.521236
-0.600896
-0.502823
0.508796
0.553275
0.0240977
-0.0489246
0.402683
0.184894
0.316168
0.355695
0.230183
0.0466882
0.0863117
-0.550364
-0.510828
-0.490743
-0.427198
-0.394784
-0.583472
-0.165796
-0.262856
-0.124257
-0.37067
-0.352831
-0.724113
-0.718158
-0.675457
-0.7126
-0.626472
-0.668445
-0.757402
-0.758249
-0.757553
-0.784385
-0.785653
-0.784144
-0.762726
-0.800409
-0.790231
-0.773076
-0.784101
-0.776934
-0.795041
-0.759544
-0.786211
-0.670273
-0.737357
-0.799559
-0.571929
-0.635711
-0.693437
-0.631948
0.416907
-0.0612178
0.319357
0.306753
0.135123
0.234971
-0.0205428
0.0260306
0.0721026
-0.54796
-0.518008
-0.457428
-0.425563
-0.606285
-0.217472
-0.310241
-0.177304
-0.421779
-0.398816
-0.756136
-0.751979
-0.709379
-0.740582
-0.665432
-0.704865
-0.792629
-0.815339
-0.794253
-0.830411
-0.815657
-0.839267
-0.809344
-0.840837
-0.83423
-0.818394
-0.826587
-0.835097
-0.852412
-0.754996
-0.812195
-0.862092
-0.685844
-0.726632
-0.77668
-0.744092
0.268378
-0.130894
0.196282
0.113214
-0.0843163
-0.0174028
-0.575707
-0.54536
-0.486658
-0.632095
-0.275106
-0.364615
-0.238548
-0.491
-0.451243
-0.887975
-0.798972
-0.778194
-0.748594
-0.689809
-0.72266
-0.83091
-0.848102
-0.836105
-0.871194
-0.857729
-0.880911
-0.853019
-0.874903
-0.872794
-0.863581
-0.851516
-0.895288
-0.903079
-0.826921
-0.874039
-0.911325
-0.779471
-0.800474
-0.844188
-0.836462
0.11188
-0.197042
0.0367396
-0.0419416
-0.133687
-0.597647
-0.546764
-0.657803
-0.573565
-0.337471
-0.414053
-0.308047
-0.538178
-0.491357
-0.930322
-0.923229
-0.826356
-0.802181
-0.775342
-0.711668
-0.743819
-0.872344
-0.880969
-0.904372
-0.899614
-0.915782
-0.899372
-0.907842
-0.931528
-0.873654
-0.893537
-0.937259
-0.943445
-0.887156
-0.922964
-0.951071
-0.862583
-0.903101
-0.907602
-0.0478977
-0.263659
-0.122635
-0.199974
-0.62419
-0.685613
-0.612653
-0.422763
-0.375929
-0.573965
-0.529242
-0.963976
-0.958903
-0.951989
-0.851629
-0.827885
-0.798002
-0.756528
-0.91105
-0.924954
-0.938992
-0.944968
-0.938792
-0.960203
-0.895829
-0.913283
-0.930514
-0.968652
-0.972296
-0.93447
-0.959413
-0.977004
-0.929868
-0.949139
-0.956144
-0.206493
-0.329297
-0.274363
-0.736639
-0.680191
-0.661035
-0.480506
-0.434536
-0.6195
-0.577433
-0.985237
-0.986773
-0.981223
-0.974619
-0.876368
-0.851996
-0.822507
-0.789763
-0.946291
-0.959128
-0.970675
-0.972341
-0.980466
-0.918808
-0.927008
-0.944951
-0.961948
-0.987999
-0.988307
-0.967572
-0.981237
-0.988313
-0.974002
-0.967682
-0.98064
-0.359355
-0.413675
-0.742983
-0.707848
-0.541586
-0.497869
-0.66823
-0.625978
-1.00024
-0.997102
-0.996486
-0.994764
-1.00299
-0.990973
-0.899338
-0.875689
-0.848432
-0.818464
-0.976152
-0.985394
-0.992424
-0.994657
-0.940126
-0.95502
-0.973427
-0.986499
-0.993353
-0.989491
-0.986369
-0.983834
-0.984274
-0.984631
-0.981345
-0.502117
-0.555558
-0.785479
-0.750568
-0.62813
-0.706702
-1.00187
-0.998791
-0.990457
-1.00389
-1.00484
-0.921327
-0.900091
-0.876038
-0.850183
-0.996993
-1.00207
-1.00469
-0.957797
-0.972288
-0.98403
-0.994155
-1.00205
-0.983026
-0.974503
-0.977932
-0.982427
-0.965786
-0.973151
-0.958647
-0.968214
-0.63092
-0.688927
-0.822231
-0.790119
-0.755848
-0.995631
-0.988055
-0.979261
-1.00291
-0.983486
-1.00636
-0.941374
-0.922205
-0.901389
-0.880355
-1.00683
-1.00769
-0.972218
-0.984135
-0.993531
-1.00044
-1.00385
-1.00587
-0.955905
-0.943215
-0.960532
-0.931522
-0.938338
-0.912773
-0.94417
-0.928697
-0.743227
-0.790692
-0.85676
-0.826087
-0.97045
-0.958641
-0.99377
-0.971485
-0.949021
-0.999894
-0.957973
-0.941367
-0.925374
-0.911683
-1.00314
-0.982173
-0.990871
-0.999449
-0.997378
-1.00157
-1.00358
-0.911068
-0.892462
-0.912439
-0.874381
-0.882413
-0.845185
-0.911397
-0.892245
-0.87186
-0.83603
-0.868638
-0.892912
-0.923138
-0.913809
-0.978444
-0.940505
-0.984543
-0.97111
-0.933966
-0.958782
-0.946691
-0.9862
-0.987732
-0.992764
-0.995686
-0.990001
-0.996467
-0.995188
-0.848625
-0.826398
-0.848103
-0.811153
-0.806197
-0.757556
-0.86267
-0.846974
-0.823549
-0.797449
-0.907003
-0.935152
-0.867112
-0.888486
-0.953789
-0.907541
-0.963637
-0.980959
-0.962316
-0.972773
-0.959835
-0.988103
-0.989296
-0.98844
-0.985289
-0.972448
-0.979978
-0.769398
-0.739554
-0.764391
-0.710358
-0.652011
-0.803698
-0.790531
-0.765837
-0.736911
-0.705956
-0.95552
-0.971906
-0.820673
-0.844392
-0.868289
-0.923791
-0.912749
-0.985445
-0.98131
-0.932382
-0.982355
-0.980191
-0.975437
-0.967908
-0.958351
-0.946771
-0.673258
-0.637601
-0.657711
-0.595634
-0.531135
-0.741576
-0.718259
-0.698669
-0.669693
-0.635625
-0.599611
-0.980209
-0.983798
-0.765015
-0.792565
-0.855247
-0.875497
-0.982322
-0.896171
-0.965403
-0.956275
-0.944761
-0.930674
-0.91447
-0.562472
-0.54216
-0.525546
-0.465982
-0.397805
-0.67122
-0.642122
-0.612211
-0.58961
-0.558505
-0.519855
-0.4803
-0.972766
-0.980877
-0.699832
-0.717483
-0.77468
-0.801953
-0.828849
-0.956854
-0.853378
-0.933496
-0.917193
-0.896772
-0.875985
-0.439993
-0.412595
-0.397767
-0.325576
-0.255127
-0.599796
-0.563247
-0.52326
-0.486193
-0.476035
-0.435045
-0.393163
-0.344759
-0.940639
-0.958018
-0.639981
-0.706374
-0.775617
-0.745188
-0.655464
-0.908117
-0.80388
-0.882392
-0.85626
-0.830845
-0.528813
-0.303203
-0.266319
-0.185199
-0.106405
-0.485522
-0.442776
-0.397794
-0.353594
-0.342488
-0.297092
-0.245298
-0.193882
-0.89659
-0.912229
-0.713164
-0.576233
-0.663397
-0.578455
-0.851185
-0.840586
-0.747741
-0.807831
-0.778576
-0.448193
-0.405428
-0.130305
-0.094854
-0.0309203
0.0448181
-0.358665
-0.311301
-0.263836
-0.2202
-0.196303
-0.142918
-0.0840342
-0.0305446
-0.844953
-0.650149
-0.621619
-0.484841
-0.535408
-0.779355
-0.79014
-0.75625
-0.685094
-0.720027
-0.362994
-0.318225
-0.271833
0.0119141
0.0620926
0.119607
0.195066
-0.222688
-0.171655
-0.124513
-0.0805414
-0.0363639
0.0191926
0.0683002
0.119728
-0.757129
-0.577271
-0.534303
-0.406659
-0.442509
-0.700323
-0.702115
-0.656435
-0.616753
-0.272676
-0.225834
-0.179343
-0.129191
0.169989
0.188453
0.268592
0.340839
-0.0792722
-0.0291104
0.0194039
0.0676952
0.116186
0.164837
0.215298
0.27617
-0.651491
-0.499261
-0.453657
-0.410748
-0.322828
-0.595698
-0.593576
-0.542677
-0.416768
-0.178165
-0.1315
-0.0829292
-0.0341693
0.0162861
0.3181
0.410923
0.478764
0.0661111
0.115119
0.163545
0.211922
0.259818
0.307161
0.353628
0.410674
-0.530663
-0.369505
-0.322066
-0.215152
-0.488158
-0.453349
-0.328795
-0.288431
-0.0850149
-0.0356826
0.0136934
0.0630519
0.112328
0.161371
0.47431
0.542946
0.605597
0.209837
0.257561
0.304775
0.351717
0.398205
0.443108
0.490646
0.544665
-0.397296
-0.229576
-0.118213
-0.332164
-0.23812
-0.210716
-0.176484
0.00719875
0.0596583
0.109616
0.158678
0.20725
0.255412
0.302851
0.605284
0.663799
0.718428
0.349368
0.395067
0.43949
0.484976
0.528285
0.569736
0.611531
0.665309
-0.254778
-0.0662165
-0.185516
-0.129824
-0.0882385
0.10453
0.155046
0.204788
0.25324
0.300199
0.347358
0.393109
0.438109
0.719092
0.768614
0.814594
0.481901
0.52469
0.770341
0.567653
0.608349
0.647078
0.683843
0.729168
-0.106075
0.0542116
-0.034798
0.00660508
0.20035
0.249697
0.298214
0.345707
0.392026
0.436603
0.480245
0.891802
0.522648
0.564305
0.812968
0.855373
0.604332
0.644085
0.846396
0.822345
0.682162
0.71815
0.751781
0.785595
0.0451851
0.150629
0.113319
0.294772
0.341629
0.389303
0.434892
0.948381
0.479356
0.522532
0.563527
0.602971
0.922802
0.641246
0.678604
0.893485
0.71419
0.749482
0.889478
0.868582
0.782054
0.812301
0.840449
0.19546
0.271088
0.378185
0.421544
0.475241
0.519796
0.562168
0.968547
0.983038
0.602727
0.641697
0.678279
0.712462
0.955628
0.746297
0.778281
0.943604
0.808924
0.837182
0.929449
0.910396
0.864323
0.888743
0.341286
0.411351
0.481718
0.545312
0.598799
0.639555
0.677297
0.982827
0.991602
0.994864
0.713135
0.746407
0.77699
0.80705
0.983515
0.835304
0.861293
0.971891
0.885626
0.90677
0.95968
0.945344
0.928504
0.983574
0.479153
0.54401
0.608458
0.663519
0.708759
0.745996
0.777791
0.99455
0.992544
0.808026
0.835203
0.859952
0.884253
0.994732
0.990238
0.90598
0.925509
0.987779
0.94322
0.959842
0.980821
0.97144
0.94961
0.969506
0.605933
0.664649
0.719122
0.766591
0.809545
0.835386
0.861194
0.986612
0.885069
0.906146
0.924865
0.987191
0.941741
0.994478
0.956712
0.969332
0.994609
0.979961
0.987733
0.99246
0.893543
0.924243
0.954768
0.718716
0.768995
0.814764
0.861115
0.88361
0.905988
0.925504
0.966899
0.942728
0.957342
0.969046
0.978578
0.978927
0.986425
0.986604
0.99187
0.991598
0.994558
0.994367
0.816632
0.85949
0.900624
0.924149
0.720795
0.608441
0.814841
0.85594
0.892129
0.919573
0.918171
0.940767
0.956921
0.969474
0.942203
0.979535
0.98697
0.991758
0.956839
0.994404
0.968832
0.994647
0.992211
0.978908
0.986987
0.771932
0.831573
0.860355
0.885451
0.65782
0.54626
0.481744
0.343988
0.198246
0.0478712
-0.103602
-0.25271
-0.396026
0.892116
-0.966012
0.923037
0.9465
0.95577
0.968414
0.979054
0.986796
0.991952
0.906734
0.99457
0.994659
0.99243
0.925542
0.987891
0.941676
0.980728
0.970522
0.957665
0.730784
0.779121
0.810151
0.838023
0.639641
0.549066
0.417724
0.262856
0.117752
-0.0310815
-0.184883
-0.330334
-0.456942
-0.530057
-0.651756
-0.917247
-0.938182
-0.84749
-0.758456
-0.708473
0.948733
-0.964977
0.968539
0.979728
0.986863
0.991832
0.994565
0.994757
0.992401
0.862209
0.987439
0.980321
0.970593
0.885359
0.959176
0.907946
0.944914
0.927544
0.679244
0.716377
0.750654
0.781987
0.570387
0.450898
0.317026
0.173398
0.0301209
-0.123214
-0.270674
-0.393206
-0.49115
-0.582897
-0.659315
-0.89126
-0.937326
-0.854847
-0.810204
-0.75582
0.98333
-0.964919
0.991665
0.994999
0.994731
0.992653
0.98789
0.980612
0.97076
0.808405
0.958234
0.943574
0.927586
0.83689
0.90911
0.864117
0.888386
0.608261
0.64746
0.684662
0.718182
0.489639
0.359531
0.22237
0.0822651
-0.0588208
-0.20422
-0.939787
-0.335608
-0.453318
-0.570558
-0.662827
-0.738031
-0.891647
-0.819559
0.99505
-0.964476
0.99254
0.984613
0.980914
0.97168
0.959316
0.94469
0.927527
0.746714
0.907853
0.886849
0.86434
0.781617
0.839856
0.812482
0.531032
0.572692
0.612312
0.646101
0.404921
0.270533
0.130611
-0.012082
-0.150531
-0.282853
-0.945897
-0.914813
-0.400594
-0.513445
-0.622098
-0.714215
-0.793133
-0.861764
0.983783
-0.96452
0.969659
0.960477
0.949881
0.94798
0.929061
0.909565
0.887927
0.864029
0.682367
0.838275
0.811691
0.783555
0.719049
0.752759
0.449562
0.492903
0.531758
0.570349
0.318026
0.180713
0.0408946
-0.100051
-0.231974
-0.358129
-0.93975
-0.89498
-0.473614
-0.582529
-0.68112
-0.76581
-0.836735
0.94975
-0.964467
-0.94886
0.92442
0.921786
0.893743
0.89461
0.866432
0.839876
0.811787
0.782075
0.611339
0.751372
0.719528
0.686149
0.649862
0.364228
0.407005
0.448332
0.491923
0.22933
0.0913692
-0.0468177
-0.183502
-0.314793
-0.434097
-0.920589
-0.875935
-0.544935
-0.646695
-0.735923
-0.813359
0.89361
-0.96435
-0.942765
0.857829
0.855959
0.817127
0.817381
0.784421
0.752047
0.718774
0.683704
0.534584
0.648478
0.612122
0.574658
0.275928
0.319992
0.364776
0.409763
0.139657
0.00166706
-0.134918
-0.2672
-0.391534
-0.507372
-0.907675
-0.853904
-0.611912
-0.705351
-0.787178
0.816798
-0.964702
-0.936618
0.77307
0.749886
0.760612
0.722405
0.685238
0.648541
0.610445
0.571175
0.452411
0.531709
0.492804
0.186451
0.232873
0.278933
0.324077
0.0489597
-0.0883409
-0.221504
-0.349658
-0.46892
-0.576409
-0.889599
-0.831395
-0.67479
-0.759954
0.721226
-0.964523
-0.915816
-0.94598
0.687769
0.673787
0.649933
0.611876
0.572326
0.531923
0.490295
0.446996
0.367616
0.404313
0.0969461
0.144041
0.190813
0.235858
-0.0410441
-0.178861
-0.3111
-0.430417
-0.541337
-0.64286
-0.868259
-0.807481
-0.731741
0.608776
-0.964329
-0.90111
-0.939807
0.611876
0.573455
0.532713
0.491034
0.449872
0.368067
0.405789
0.36217
0.318563
0.277579
0.00411402
0.0554341
0.101897
0.14588
-0.140349
-0.271177
-0.394008
-0.506364
-0.609271
-0.704129
-0.848205
-0.784359
-0.883657
0.523911
0.481988
-0.964699
-0.932392
0.492754
0.444521
0.405199
0.284088
0.326357
0.267924
0.276126
0.228108
0.184964
-0.104423
-0.0314105
0.0132109
0.0567139
-0.237994
-0.357183
-0.469981
-0.574398
-0.908101
-0.669248
-0.872171
-0.760495
-0.830132
0.414126
0.344116
-0.964634
-0.938741
0.353407
0.283625
0.182541
0.168595
0.188759
0.144448
0.0939179
0.0761124
-0.164313
-0.22505
-0.113353
-0.0736086
-0.0307382
-0.323299
-0.434021
-0.540103
-0.637896
-0.905489
-0.7204
-0.866107
-0.781473
-0.825336
0.274074
0.198359
-0.964443
-0.938368
0.197937
0.125525
0.0722761
0.0461309
-0.0362694
0.00152881
-0.218016
-0.287382
-0.129364
-0.198227
-0.159
-0.407994
-0.514473
-0.608323
-0.696738
-0.897442
-0.770605
-0.834562
0.117907
0.0480232
-0.964441
-0.938933
-0.91225
-0.393325
0.0227381
-0.0144103
-0.0615603
-0.108811
-0.160232
-0.12659
-0.3233
-0.219955
-0.24566
-0.287631
-0.487217
-0.585044
-0.671062
-0.749136
-0.87348
-0.818739
-0.0330013
-0.103456
-0.964396
-0.904163
-0.939371
-0.454544
-0.0985242
-0.12121
-0.148051
-0.196761
-0.241795
-0.265153
-0.409432
-0.329812
-0.369914
-0.557786
-0.64712
-0.726949
-0.797601
-0.8611
-0.178487
-0.226479
-0.252567
-0.964521
-0.897522
-0.935019
-0.524348
-0.22638
-0.284677
-0.325453
-0.362857
-0.406697
-0.485695
-0.44646
-0.621842
-0.707013
-0.786146
-0.857154
-0.313376
-0.337335
-0.395814
-0.964415
-0.910909
-0.944914
-0.590077
-0.371168
-0.408682
-0.444928
-0.481434
-0.518914
-0.554908
-0.682683
-0.762273
-0.830703
-0.888309
-0.458769
-0.456607
-0.529997
-0.964431
-0.93481
-0.652513
-0.485787
-0.521064
-0.55455
-0.588187
-0.621137
-0.910202
-0.737328
-0.809359
-0.868173
-0.53645
-0.557994
-0.581867
-0.651683
-0.964613
-0.93887
-0.71239
-0.585451
-0.62204
-0.652887
-0.683041
-0.90704
-0.788739
-0.853246
-0.618189
-0.650266
-0.705515
-0.7584
-0.965894
-0.943402
-0.964325