<VTKFile type="UnstructuredGrid" version="0.1" byte_order="LittleEndian">
<UnstructuredGrid>
<Piece NumberOfPoints="3163" NumberOfCells="6064">
<PointData Scalars="abs_term_u">
<DataArray type="Float64" Name="real_part_term_u" format="ascii">
-1.06587
-1.10396
-1.13808
-1.16824
-1.08127
-1.04727
-1.0237
-1.11807
-1.15174
-1.19451
-1.18174
-1.09475
-1.05538
-0.97801
-1.00728
-0.928461
-0.875372
-1.12866
-1.16894
-1.21673
-1.20633
-1.19307
-1.08632
-1.04223
-1.01615
-0.954689
-0.980629
-0.902905
-0.847555
-0.81864
-1.12146
-1.15853
-1.19022
-1.23492
-1.22644
-1.21414
-1.07514
-1.02897
-0.990372
-0.931358
-0.86574
-0.817226
-0.787211
-0.758626
-0.695642
-0.629989
-1.07853
-1.1154
-1.15036
-1.08883
-1.10373
-1.18175
-1.2066
-1.24912
-1.25934
-1.24251
-1.23516
-1.22775
-1.03691
-0.987271
-0.873307
-0.931937
-0.561731
-0.81656
-0.766705
-0.726364
-0.589529
-0.658377
-1.0504
-1.03785
-1.0728
-1.26558
-1.09337
-1.17431
-1.14295
-1.1166
-1.13331
-1.20083
-1.2188
-1.19698
-1.25478
-1.26305
-1.25001
-1.244
-1.23661
-0.491201
-0.418829
-0.99117
-0.9347
-0.816326
-0.875755
-0.524378
-0.758057
-0.550027
-0.691552
-0.611943
-0.99011
-0.983526
-1.02334
-1.04608
0.408229
0.51841
0.548863
-1.26785
-1.2673
-1.26615
-1.06242
-1.0004
-1.10665
-1.13299
-1.17409
-1.15528
-1.22137
-1.20835
-1.26028
-1.26551
-1.2569
-1.25096
-1.24139
-0.344921
-0.454999
-0.382109
-0.933561
-0.873985
-0.761951
-0.803268
-0.491755
-0.705535
-0.543834
-0.630777
-0.929688
-0.966222
-0.932006
-0.956808
-0.992466
-1.00055
-0.938648
0.396861
0.463843
0.27169
0.32535
0.148848
0.464666
0.368293
0.400827
-0.196357
0.234191
0.0554608
-0.265694
-0.00159855
-0.0760541
0.20467
0.611357
0.396505
0.521944
0.607872
0.549561
0.687093
-1.2676
-1.2679
-1.26048
-1.26396
-0.332931
-0.930506
-0.840154
-0.983887
-1.0955
-1.04373
-1.13697
-1.16598
-1.18863
-1.21482
-1.22985
-1.26567
-1.26089
-1.2531
-1.24327
-0.500977
-0.761321
-0.643651
-0.359915
-0.428357
-0.269811
-0.307566
-0.418717
-0.342722
-0.868899
-0.806306
-0.728719
-0.748678
-0.45643
-0.654114
-0.488526
-0.570326
-0.874279
-0.850845
-0.775203
-0.894965
-0.907534
-0.943444
-0.932841
-0.883638
-0.194058
-0.118156
-0.0424263
0.0330726
0.241546
0.321163
0.199308
0.243926
0.0449425
0.0846507
0.297906
0.251978
-0.128991
-0.289404
0.0834767
-0.0814767
-0.144891
0.0148012
0.148399
0.368002
0.73236
0.548959
0.697399
0.672517
0.817586
-1.26649
-1.26764
-1.2508
-1.25626
-1.26077
-0.216029
-0.723601
-0.41194
-0.581372
-0.8001
-0.924862
-1.012
-1.12367
-1.08007
-1.14058
-1.16349
-1.1921
-1.21217
-1.23469
-1.26569
-1.26058
-1.25132
-1.2371
-0.56606
-0.682614
-0.71205
-0.43027
-0.498861
-0.232019
-0.269731
-0.376871
-0.293655
-0.800861
-0.720986
-0.680471
-0.410721
-0.592209
-0.434986
-0.504084
-0.805063
-0.837158
-0.762326
-0.822613
-0.815574
-0.877929
-0.864426
-0.154796
-0.00362181
-0.076065
0.107795
0.181183
0.0713637
0.253003
-0.0340078
-0.0829153
0.0993211
0.181531
0.109303
-0.00737152
0.018187
0.123751
0.0999401
-0.237407
-0.367827
-0.0489907
-0.196248
-0.0984111
-0.0158223
0.164709
0.358266
0.531709
0.848942
0.714139
0.809302
0.933977
-1.26551
-1.26374
-1.24468
-1.25157
-1.25611
-0.0842271
-0.30002
-0.663082
-0.497141
-0.743448
-0.868569
-0.964126
-1.04526
-1.11098
-1.15622
-1.18639
-1.22473
-1.20328
-1.24371
-1.26281
-1.25653
-1.22975
-1.2193
-0.621196
-0.690094
-0.465287
-0.538617
-0.202973
-0.325893
-0.242933
-0.731342
-0.64318
-0.620287
-0.358944
-0.521082
-0.41726
-0.742905
-0.798179
-0.725978
-0.746619
-0.751262
-0.801213
-0.111372
0.0369191
-0.02343
0.145446
0.218382
0.107903
0.32281
0.288465
0.390404
-0.0670724
-0.09768
-0.0234676
0.0445203
-0.0171107
-0.0601184
-0.0192965
-0.037266
-0.318703
-0.409411
-0.159881
-0.276886
-0.117661
0.12792
0.336945
0.566975
0.773194
0.953119
0.892307
1.03183
-1.26049
-1.26045
-1.25533
-1.23875
-1.24688
-1.22455
0.0627022
-0.170507
-0.389468
-0.581744
-0.669666
-0.814022
-0.90791
-0.989607
-1.06449
-1.12341
-1.23138
-1.17345
-1.20626
-1.24739
-1.25656
-1.23099
-1.19746
-1.17163
-1.2095
-1.14173
-0.65547
-0.613948
-0.432417
-0.480891
-0.540645
-0.157966
-0.191616
-0.267246
-0.659458
-0.587315
-0.552574
-0.301469
-0.452431
-0.34343
-0.66713
-0.73336
-0.667407
-0.66518
-0.705116
-0.0721663
0.0591797
0.0143065
0.186919
0.254611
0.146208
0.455719
0.357113
0.322623
0.423859
-0.120892
-0.136567
-0.075185
-0.123403
-0.133571
-0.146494
-0.376278
-0.24017
-0.320188
-0.168044
0.285672
0.511816
0.731948
0.907867
1.03255
1.10449
-1.2531
-1.25413
-1.2509
-1.243
-1.23016
-1.21033
-0.0271867
0.196513
-0.264227
-0.486479
-0.136496
-0.593045
-0.746635
-0.893818
-1.00765
-1.0747
-1.13227
-1.20811
-1.17687
-1.21062
-1.24495
-1.22451
-1.18239
-1.15732
-1.19439
-1.1078
-1.12938
-1.06985
-0.598802
-0.580657
-0.426556
-0.466568
-0.514223
-0.11579
-0.187139
-0.582134
-0.491245
-0.235846
-0.377625
-0.283153
-0.583653
-0.649356
-0.589119
-0.56475
-0.606668
0.518306
-0.023586
0.0523845
0.0932063
0.246873
0.18451
0.488197
0.33567
0.400509
0.384193
0.45677
-0.188732
-0.222834
-0.175712
-0.200409
-0.218928
-0.216886
-0.370208
-0.287425
-0.328276
-0.228806
1.00124
0.437801
0.664451
0.872947
1.09865
1.15185
-1.18682
-1.24511
-1.24395
-1.23757
-1.22577
-1.20875
-1.18284
0.334426
0.0590516
-0.37148
-0.188511
-0.526762
-0.663903
-0.807346
-0.93267
-1.02212
-1.07812
-1.13242
-1.17813
-1.19763
-1.23238
-1.21143
-1.15783
-1.02787
-1.09306
-1.11421
-1.05234
-0.532748
-0.382741
-0.512773
-0.445601
-0.0710726
-0.127066
-0.481038
-0.381986
-0.176829
-0.278317
-0.477236
-0.546506
-0.492886
-0.47826
0.548239
0.577938
0.634538
0.0435835
0.122325
0.276804
0.217342
0.355244
0.518042
0.407076
0.451813
-0.24768
-0.274544
-0.252606
-0.265708
-0.337523
-0.301411
-0.301869
-0.277279
1.02453
0.579873
0.847548
1.12946
1.17512
-1.15604
-1.2326
-1.23101
-1.22019
-1.20434
-1.17944
-1.15215
0.471589
0.22391
-0.0273691
-0.402334
-0.261512
-0.575815
-0.730456
-0.867127
-0.995101
-1.0729
-1.12392
-1.16034
-1.18168
-1.21604
-1.19225
-0.982021
-1.12062
-1.00577
-1.08045
-1.03002
-0.932398
-0.879012
-0.313059
-0.446317
-0.358742
-0.40696
-0.0182277
-0.0710587
-0.37725
-0.0653169
-0.27176
-0.165022
-0.361072
-0.428022
-0.382109
-0.334158
0.577277
0.60694
0.661956
0.688099
0.0884274
0.151899
0.308621
0.252743
0.379545
0.422615
0.526839
0.473145
0.591862
-0.285565
-0.287708
-0.286006
-0.276249
-0.275085
-0.256632
-0.288768
1.03323
0.687717
0.889759
1.1679
1.1272
1.12745
-1.12085
-1.21375
-1.19774
-1.17653
-1.15162
-1.11938
0.557952
0.363668
0.117978
-0.119592
-0.467618
-0.340679
-0.63922
-0.788521
-0.903374
-1.00243
-1.05872
-1.11013
-1.14187
-1.16048
-1.19251
-1.16711
-0.957727
-1.08126
-0.986463
-1.03556
-0.76185
-0.822052
-0.906487
-0.851867
-0.698555
-0.632344
-0.222099
-0.257469
-0.341399
-0.300192
0.0326101
0.0226534
-0.251208
-0.0507886
-0.149163
-0.224425
-0.297548
-0.256688
-0.198401
0.638668
0.689306
0.713947
0.73847
0.78549
0.130829
0.194245
0.300722
0.37081
0.445745
0.50008
0.548018
0.606167
0.651634
-0.273599
-0.260095
-0.198333
-0.211042
-0.247255
0.952461
0.73974
1.13852
1.03069
1.07032
-1.08268
-1.18186
-1.15119
-1.12049
-1.08447
0.497866
0.259201
0.0174059
-0.212342
-0.538674
-0.421605
-0.704358
-0.844717
-0.968426
-1.04555
-1.09059
-1.1194
-1.13484
-1.16243
-1.13653
-0.9336
-1.03817
-0.950596
-0.989093
-0.731324
-0.79311
-0.875054
-0.823684
-0.669401
-0.563589
-0.601601
-0.119944
-0.141858
-0.172923
-0.217429
0.119421
0.0718657
-0.122261
-0.0471717
-0.0858161
-0.166368
-0.116407
-0.06532
0.0776159
0.69762
0.829298
0.811156
0.738214
0.764922
0.869956
0.907415
0.233009
0.357199
0.412892
0.47073
0.52751
0.587386
0.655781
0.706416
-0.210461
-0.19618
-0.109953
-0.119818
-0.00349155
-0.144024
0.855522
0.626215
1.06446
1.07619
0.93358
0.978945
-1.04302
-1.14609
-1.11766
-1.08397
-1.04673
0.392086
0.147095
-0.0863507
-0.303084
-0.496091
-0.606054
-1.09917
-0.760822
-0.884442
-0.979651
-1.03745
-1.06201
-1.10322
-1.12793
-1.10187
-0.896777
-0.992326
-0.943743
-0.895081
-0.702779
-0.76399
-0.831969
-0.64077
-0.492591
-0.528214
-0.563664
-0.419728
-0.345332
-0.0142865
-0.036146
-0.0759787
0.200992
0.175692
0.0281448
0.0470363
0.00928974
-0.0273271
0.061999
0.162477
0.752686
0.851289
0.835625
0.796767
0.941816
0.889399
0.925167
0.321127
0.409826
0.453076
0.504837
0.555466
0.606468
0.661088
0.714605
0.764182
0.973192
-0.086274
0.00802863
0.110037
0.104325
0.00825928
0.742305
0.514804
0.996521
0.997267
0.819783
0.879933
0.852554
-0.999286
-1.10661
-1.07582
-1.04664
-1.00765
0.271229
0.0361516
-0.194334
-0.388972
-0.482378
-0.559869
-0.664417
-1.06221
-0.808445
-0.911644
-0.992773
-0.994218
-1.06663
-1.08787
-1.06142
-0.845313
-0.936208
-0.865935
-0.694919
-0.776153
-0.603627
-0.45104
-0.520732
-0.48375
-0.375743
-0.193558
-0.26973
-0.304734
0.102129
0.083505
0.299573
0.124069
0.281772
0.160627
0.164074
0.111635
0.162539
0.270876
0.805904
0.870903
0.845533
0.958128
0.908638
0.940319
0.816102
0.477123
0.424797
0.535319
0.628335
0.585308
0.675248
0.724863
0.77498
1.00167
0.987927
1.02739
1.05047
0.230031
0.0934889
0.155789
0.225195
0.183329
0.619331
0.390153
0.915849
0.896781
0.723971
0.713602
0.764453
-0.95257
-1.06148
-1.02187
-0.962043
0.150252
-0.0827551
-0.323495
-0.507636
-0.614853
-0.71424
-1.01745
-0.836463
-0.932331
-0.955095
-1.02409
-1.04338
-1.01566
-0.7976
-0.885943
-0.817299
-0.638775
-0.718303
-0.560785
-0.116946
-0.0404434
-0.477149
-0.403626
-0.434542
-0.33085
-0.148531
-0.224809
-0.263199
0.0356365
0.110656
0.184755
0.257065
0.218628
0.189053
0.393504
0.224479
0.375473
0.269352
0.266126
0.248304
0.368033
0.853149
0.892756
0.969838
0.936528
0.855955
0.832896
0.518819
0.493182
0.580974
0.614329
0.686942
0.662055
0.731013
0.779234
1.01487
1.00169
1.1189
1.10514
1.07106
1.08924
1.03914
1.0608
0.332643
0.339359
0.263892
0.338589
0.34666
0.488339
0.25991
0.813731
0.780502
0.563537
0.604055
0.617571
0.673705
-0.898104
-1.01175
-0.965943
-0.909048
0.0244411
-0.197921
-0.390968
-0.558103
-0.655942
-0.751697
-0.9755
-0.870182
-0.922748
-0.977034
-0.990995
-0.963766
-0.744121
-0.831158
-0.759287
-0.59609
-0.662616
-0.525143
-0.0781931
-0.00861971
-0.434882
-0.385631
-0.331354
-0.110729
-0.180572
-0.224675
0.067461
0.148393
0.118046
0.221459
0.39564
0.327487
0.292316
0.317279
0.469012
0.552437
0.340862
0.447927
0.372113
0.362653
0.442575
0.98843
0.890468
0.929365
0.967622
0.883269
0.825514
0.870635
0.58299
0.637516
0.677271
0.70303
0.728538
0.779785
1.13067
1.14051
1.14854
1.1548
1.02649
1.0113
1.12447
1.11188
1.09643
1.07943
1.04918
1.06883
0.407843
0.428072
0.436363
0.407313
0.459929
0.356493
0.135916
0.695667
0.653095
0.429452
0.479115
0.527673
0.547876
-0.839335
-0.960456
-0.916943
-0.855967
-0.0967323
-0.453216
-0.293581
-0.508435
-0.588814
-0.683254
-0.777468
-0.922373
-0.863164
-0.927167
-0.93085
-0.907913
-0.683206
-0.766515
-0.705259
-0.59027
0.461267
0.524265
0.584414
-0.483778
0.0109887
-0.0483816
-0.381296
-0.333153
-0.28355
-0.11503
-0.178204
0.0635015
0.186406
0.142517
0.264971
0.428993
0.36228
0.327728
1.14467
1.13552
1.12438
1.15935
1.16224
0.617001
0.427428
0.530114
0.583249
0.441028
0.510993
0.465818
1.00402
0.922768
0.959317
0.9926
0.913003
0.820432
0.861444
0.900884
0.654824
0.695434
0.733745
0.779395
1.13565
1.12752
1.14418
1.15128
1.15684
1.03267
1.11915
1.10365
1.08391
1.06173
1.16349
1.1631
1.16107
1.15737
1.15192
0.483182
0.468133
0.482622
0.490049
0.483006
0.490497
0.228602
0.0127423
0.567507
0.520188
0.386356
0.462188
0.302844
0.358341
0.387874
0.382993
-0.775175
-0.88006
-0.799352
-0.197516
-0.392429
-0.504685
-0.604813
-0.694929
-0.783483
-0.884842
-0.848658
-0.879491
-0.869018
-0.852155
-0.630658
-0.68548
-0.531276
0.493537
0.555171
0.599316
0.641414
0.793146
0.745814
0.695324
0.9812
1.00959
1.03508
-0.424791
-0.0066547
-0.322699
-0.280228
-0.234964
-0.0738368
-0.135774
0.0887943
0.166576
0.237941
0.466413
0.323979
0.399254
1.05787
1.14799
1.13988
1.07812
1.11118
1.09582
1.12969
1.11764
1.1605
1.16254
0.624902
0.666377
0.493848
0.576541
0.513399
0.540891
1.02112
0.951607
0.979462
1.00623
0.938989
0.814739
0.849679
0.883867
0.918693
0.705472
0.7476
0.786006
1.13362
1.14088
1.12389
1.14662
1.15233
1.15711
1.04904
1.10842
1.09308
1.07331
1.1091
1.1629
1.16168
1.15871
1.15429
1.14945
0.506585
0.495833
0.490003
0.456665
0.476129
0.421119
0.108944
-0.0986941
0.260058
0.147612
0.424482
0.315151
0.35175
0.180385
0.230881
0.254387
0.246941
-0.712756
-0.733396
-0.809969
-0.285285
-0.43746
-0.523294
-0.60683
-0.691076
-0.77449
-0.827392
-0.828553
-0.806319
-0.794446
-0.578829
-0.619478
-0.469164
0.524075
0.583825
0.635587
0.675355
0.837215
0.815905
0.769983
0.719372
0.877996
0.949823
0.915469
0.966035
0.994894
1.02079
1.0452
-0.353385
-0.269246
0.027127
-0.216868
-0.18966
-0.0365806
-0.0935174
0.137709
0.234231
0.320722
0.484574
0.401457
1.06811
1.13318
1.14141
1.08715
1.10351
1.12262
1.10984
1.16033
1.16102
1.15594
0.611252
0.634095
0.700082
0.661386
0.525437
0.580299
0.551462
1.0334
0.978476
1.01232
0.95265
0.824424
0.860019
0.892852
0.924977
0.740625
0.788018
1.13604
1.12116
1.14349
1.15033
1.05962
1.09677
1.08105
1.105
1.09664
1.1605
1.15855
1.15377
1.14567
0.48464
0.496849
0.449857
0.355015
0.360404
0.25669
0.237639
-0.00401264
-0.184637
0.0521282
0.0893801
0.201451
0.215555
0.287067
0.0646269
0.110481
0.131138
0.116184
-0.647764
-0.668863
-0.743871
-0.342448
-0.462468
-0.527851
-0.595168
-0.671996
-0.749617
-0.780211
-0.740558
-0.736709
-0.513384
-0.55403
-0.396967
0.562575
0.624401
0.684297
0.858505
0.839146
0.799729
0.748665
0.898241
0.932719
0.950811
0.981134
1.00602
1.03135
1.0553
-0.270654
-0.179084
0.0611777
-0.101708
-0.00309601
0.151574
0.318416
0.233305
0.400712
0.545316
0.48252
1.07438
1.12886
1.13462
1.09495
1.11171
1.15673
1.158
1.15037
0.596693
0.715598
0.631884
0.67205
0.521753
0.55916
1.03926
0.9847
1.01296
0.955167
0.827522
0.859683
0.890085
0.919086
0.711974
0.755814
0.791876
1.12999
1.11334
1.1364
1.1396
1.06257
1.08251
1.09378
1.08669
1.15517
1.15363
1.13685
1.14702
0.431455
0.452874
0.360226
0.230611
0.151855
0.0206716
0.0792411
-0.101428
-0.254466
-0.0194003
-0.0637924
0.0048663
0.0270922
0.086807
0.108022
0.159182
-0.0387953
0.00144185
0.0186091
0.019413
-0.58861
-0.613884
-0.675295
-0.380437
-0.484244
-0.562539
-0.633998
-0.707311
-0.67694
-0.666474
-0.448233
-0.492597
-0.33074
0.610783
0.666291
0.729977
0.875926
0.842867
0.788206
0.921572
0.960873
0.998604
1.02841
1.05385
-0.205165
-0.134966
-0.0572556
0.106611
0.0348802
0.396633
0.218124
0.31252
0.479937
0.565054
1.07425
1.11986
1.12377
1.09101
1.10215
1.14945
1.13903
0.583034
0.667383
0.623238
0.653224
0.482777
0.514302
1.03722
0.981641
1.0042
0.942787
0.821979
0.848633
0.875584
0.901438
0.620912
0.689211
0.749732
0.784803
1.11944
1.09915
1.12371
1.12495
1.0615
1.07966
1.07017
1.12261
1.14508
1.1346
0.355363
0.376942
0.236227
0.0734837
-0.245036
-0.0883553
-0.147964
-0.077528
-0.181697
-0.304708
-0.0509958
-0.0776497
-0.0390571
-0.00607585
0.0370674
-0.126925
-0.0919521
-0.0740079
-0.0684158
-0.53303
-0.584127
-0.396757
-0.453976
-0.521028
-0.584104
-0.641582
-0.622991
-0.580548
-0.381504
-0.427794
-0.26788
-0.13953
0.645374
0.71431
0.772691
0.890969
0.864561
0.834638
0.930526
0.97116
1.00303
1.02847
1.05149
-0.0762667
-0.000492594
0.0861142
0.470091
0.174897
0.251494
0.392167
0.310324
0.54656
0.623534
1.07002
1.10772
1.1081
1.08284
1.08976
1.13469
1.12122
0.547485
0.592978
0.54719
0.407191
0.443424
1.02313
0.963894
0.982024
0.915282
0.79992
0.82228
0.856944
0.547998
0.646425
0.735071
1.10294
1.07751
1.1065
1.10863
1.03909
1.04929
1.10306
1.11574
1.12682
0.24595
0.270611
0.0906297
-0.0855655
-0.24115
-0.485565
-0.363547
-0.335263
-0.0958928
-0.331232
-0.242685
-0.0999332
-0.095298
-0.0766092
-0.197164
-0.167258
-0.150723
-0.146872
-0.466713
-0.496114
-0.389946
-0.41083
-0.465937
-0.518212
-0.572244
-0.537569
-0.308063
-0.354913
-0.183239
-0.0750455
-0.0164722
0.698771
0.769404
0.81188
0.886616
0.858425
0.94148
0.981158
1.00664
1.02068
1.04769
0.0509901
0.129784
0.21431
0.529923
0.459832
0.300556
0.397275
0.604502
0.577915
0.680265
1.05976
1.09094
1.08673
1.06954
1.0729
1.11352
1.09888
0.467508
0.470266
0.436416
0.308131
0.355364
0.995016
0.930823
0.945239
0.867626
0.757278
0.782116
0.799332
0.469178
0.578078
0.679023
1.07946
1.0451
1.08416
1.00342
1.00482
1.08123
1.08942
1.10189
0.109162
0.136825
-0.0619006
-0.231534
-0.385327
-0.648543
-0.57465
-0.620892
-0.516259
-0.144575
-0.334917
-0.283469
-0.161493
-0.157815
-0.247771
-0.222096
-0.207254
-0.205614
-0.438198
-0.377866
-0.329074
-0.358287
-0.363607
-0.398668
-0.438377
-0.472045
-0.231502
-0.280418
-0.102093
0.0296805
0.104979
0.752327
0.817166
0.91175
0.878637
0.957595
0.994239
1.01018
1.02865
0.167437
0.24935
0.334927
0.50477
0.421328
0.590531
0.65237
0.729532
1.04332
1.06837
1.0602
1.04931
1.06975
1.0784
0.371131
0.350649
0.33342
0.192423
0.950595
0.882241
0.887888
0.805916
0.704122
0.73291
0.72307
0.337461
0.4853
0.607522
1.04752
1.00404
1.04572
0.951914
0.950161
1.04962
1.06543
-0.0451513
-0.0212588
-0.221636
-0.391732
-0.535487
-0.694764
-0.685148
-0.648131
-0.203334
-0.303032
-0.225078
-0.270771
-0.25283
-0.243342
-0.381733
-0.329121
-0.269717
-0.308797
-0.308891
-0.319064
-0.347507
-0.372396
0.101737
-0.159244
-0.00426554
0.16715
0.203009
0.211939
0.791006
0.846487
0.927475
0.893109
0.965498
0.995524
1.01058
0.278383
0.363182
0.440643
0.52692
0.60546
0.656955
0.706472
0.764548
1.01555
1.03624
1.01892
1.00799
1.03872
1.03733
0.248869
0.202481
0.188069
0.0109858
0.88909
0.813921
0.828362
0.722145
0.638272
0.625307
0.207631
0.367916
0.510146
0.999998
0.94312
0.989708
0.886799
0.874913
0.988508
1.01465
-0.20945
-0.188687
-0.384702
-0.532927
-0.636665
-0.602618
-0.67001
-0.689504
-0.67742
-0.249475
-0.282653
-0.260369
-0.266154
-0.260653
-0.279055
-0.181442
-0.256126
-0.249069
-0.228931
-0.246129
-0.261334
0.12447
-0.0325049
0.290074
0.260653
0.333044
0.863514
0.81743
0.930712
0.896026
0.958571
0.98174
0.975078
0.386356
0.515185
0.46414
0.586293
0.655351
0.727018
0.795272
0.976015
0.989308
0.958284
0.954859
0.980274
0.0551039
0.0483442
-0.165352
0.806585
0.727488
0.615416
0.518251
0.522968
0.0604091
0.226598
0.38699
0.929105
0.858928
0.909205
0.792441
0.778255
0.913619
0.944972
-0.369745
-0.350895
-0.525307
-0.633761
-0.678655
-0.37945
-0.519521
-0.632869
-0.675329
-0.260246
-0.23861
-0.246959
-0.23589
-0.147169
-0.0253316
-0.180305
-0.169238
-0.129302
-0.136292
-0.140104
0.205876
0.10343
0.409807
0.307032
0.430806
0.372789
0.851616
0.919861
0.885715
0.934623
0.948896
0.945176
0.485964
0.560832
0.706393
0.640463
0.763772
0.812331
0.922058
0.922993
0.879666
0.882215
0.882663
-0.138894
-0.120623
-0.331549
0.699129
0.583466
0.444727
0.394376
-0.105965
0.0631871
0.237226
0.837861
0.758755
0.80902
0.678179
0.658692
0.831529
0.853671
-0.508351
-0.492911
-0.628188
-0.678771
-0.663046
-0.0613202
-0.217067
-0.441971
-0.586325
-0.216854
-0.16476
-0.180389
-0.0118305
0.0993229
-0.0828508
-0.069822
-0.0242838
-0.015469
0.223813
0.34256
0.494734
0.405244
0.497189
0.463868
0.848397
0.884778
0.895584
0.903831
0.559744
0.72781
0.623763
0.679488
0.769454
0.801936
0.833898
0.835998
0.780427
0.788947
0.774311
-0.311679
-0.260535
-0.467571
0.557851
0.420034
0.265515
0.24938
-0.278679
-0.112961
0.0661027
0.722941
0.648112
0.679941
0.53417
0.524764
0.73696
-0.571099
-0.624819
-0.680752
-0.659832
0.299677
-0.568809
0.14724
0.0211642
-0.195533
-0.411032
-0.115428
-0.0435119
0.197466
0.11088
0.035761
0.0826054
0.109691
0.297975
0.420738
0.394322
0.550713
0.471587
0.524834
0.824188
0.837626
0.84199
0.720851
0.600323
0.68651
0.646476
0.74822
0.773885
0.730089
0.754432
0.726651
0.660351
0.669922
0.635032
-0.434616
-0.57773
0.397312
0.257732
0.117124
0.0824166
-0.450426
-0.293786
-0.116667
0.557809
0.517591
0.362564
0.40198
0.580051
-0.653081
-0.687293
-0.666466
-0.567065
0.637897
0.469569
-0.404874
0.303092
0.0669255
-0.177791
0.0312677
0.122587
0.243455
0.186293
0.22525
0.367947
0.434122
0.46864
0.571013
0.512247
0.539751
0.771716
0.766209
0.672478
0.685765
0.601774
0.62982
0.699817
0.674809
0.638348
0.67341
0.593692
0.532445
0.544179
0.467436
-0.580228
-0.670994
0.229141
0.0675392
-0.595023
-0.0914256
-0.462791
-0.305947
0.370131
0.326684
0.22178
0.396643
-0.703453
-0.676391
0.886446
-0.573684
-0.407969
0.758809
0.560933
-0.187315
0.328271
0.0656171
0.199617
0.277577
0.355934
0.328102
0.446141
0.477557
0.49806
0.553315
0.506436
0.502309
0.666529
0.57471
0.619412
0.611579
0.558286
0.55029
0.583455
0.561162
0.422964
0.415805
0.274578
0.270305
-0.687059
-0.723356
0.0347895
-0.146325
-0.699918
-0.593418
-0.324244
-0.485017
0.171079
0.118945
0.00417116
0.192844
0.993618
-0.69151
-0.59254
0.95359
-0.424809
-0.205412
0.798028
0.576249
0.0476978
0.318299
0.354335
0.408036
0.436995
0.480102
0.477882
0.481623
0.469134
0.48855
0.445427
0.410179
0.525463
0.457847
0.528667
0.492904
0.46818
0.451032
0.440247
0.368874
0.269631
0.115265
0.058236
-0.743035
-0.71539
-0.17179
-0.751838
-0.350435
-0.732146
-0.651352
-0.514033
-0.0448983
-0.0918364
-0.216736
-0.0149585
0.932501
0.704857
0.968101
0.95447
-0.617312
-0.452262
0.914192
-0.231979
0.0227805
0.771216
0.550063
0.289115
0.457208
0.480886
0.469562
0.469524
0.430203
0.387605
0.365553
0.330724
0.265459
0.36997
0.283844
0.394645
0.331809
0.322747
0.252582
0.174406
0.0423866
-0.0958214
-0.156036
-0.654145
-0.751009
-0.385414
-0.773516
-0.538697
-0.743848
-0.663786
-0.257917
-0.262439
-0.4315
-0.237482
0.345131
0.812334
0.530124
0.874771
0.910491
-0.487208
-0.267704
0.866219
-0.0125033
0.255248
0.719928
0.506478
0.478137
0.446751
0.40473
0.325016
0.254622
0.197724
0.168682
0.0817236
0.104417
0.182642
0.223631
0.13255
0.114282
0.0321923
-0.0380429
-0.172641
-0.309128
-0.379172
-0.520917
-0.677464
-0.765301
-0.568888
-0.792394
-0.685945
-0.764004
-0.46549
-0.609788
-0.442428
0.39148
0.148091
-0.0875153
0.638467
0.781703
0.842236
-0.308099
-0.057481
0.796995
0.205356
0.453609
0.659135
0.401073
0.324394
0.188951
0.240661
0.0793418
-0.00718209
-0.131715
-0.0284156
-0.0878773
0.00847014
-0.0991457
-0.100124
-0.215153
-0.232606
-0.378714
-0.500223
-0.568248
-0.340537
-0.545086
-0.689642
-0.773919
-0.708406
-0.803374
-0.778935
-0.664234
-0.733382
-0.608475
-0.519157
0.345116
0.0767665
-0.285719
0.540939
0.704691
0.767343
-0.0979527
0.155314
0.725254
0.39523
0.593503
0.229064
0.123302
0.0242585
-0.110886
-0.208974
-0.292349
-0.246481
-0.331216
-0.208201
-0.314362
-0.31349
-0.417607
-0.446553
-0.553106
-0.641716
-0.87175
-0.701032
-0.127727
-0.359912
-0.547729
-0.686659
-0.771726
-0.787684
-0.805025
-0.760533
-0.788232
-0.714057
-0.681757
0.274721
0.00889321
-0.296912
0.483994
0.636803
0.695149
0.113561
0.342948
0.655907
0.531868
0.0212631
0.0178299
0.0192848
-0.0114758
-0.131422
-0.233685
-0.313579
-0.405311
-0.450708
-0.513956
-0.411719
-0.49872
-0.497329
-0.573185
-0.598611
-0.66615
-0.716049
-1.06452
-0.995203
-0.854262
0.0884128
-0.761729
-0.143215
-0.361555
-0.535438
-0.667839
-0.756127
-0.794216
-0.781685
-0.74186
-0.629434
0.212983
-0.0495083
-0.335064
0.428043
0.575809
0.631195
0.30262
0.480281
0.595231
0.0465201
0.0320963
0.0245739
0.0176032
0.0184541
-0.277628
-0.382818
-0.453121
-0.563954
-0.571109
-0.619213
-0.634328
-0.570332
-0.622312
-0.630477
-0.658656
-0.679004
-0.705001
-0.706555
-0.420174
-0.762782
0.0424755
0.0643518
0.0599221
-0.955105
-1.02048
-0.868895
0.277683
0.074188
-0.737897
-0.141271
-0.331224
-0.499644
-0.633652
-0.724781
-0.693219
-0.681057
-0.638412
0.174032
-0.0846222
-0.360248
0.386745
0.525569
0.578839
0.441315
0.547757
0.0539846
0.0383651
0.0214079
0.029091
0.0161506
0.0164888
0.0189242
-0.517185
-0.591157
-0.665776
-0.67055
-0.685936
-0.676245
-0.661514
-0.667787
-0.679828
-0.657521
-0.674711
-0.652503
-0.605271
-0.177403
-0.0306618
-0.294845
-0.570646
0.0144951
0.0571027
0.0632946
0.0581577
-0.711161
-0.933977
-0.841485
0.411938
0.261135
0.0750877
-0.622873
-0.102377
-0.284943
-0.446617
-0.579758
-0.526275
-0.536212
0.15737
-0.619921
-0.0899231
-0.359007
0.35659
0.487961
0.539704
0.518357
0.503691
0.048031
0.0349711
0.0236999
0.0135931
0.0146655
-0.67818
-0.706949
-0.70501
-0.68786
-0.627424
-0.657961
-0.622135
-0.630397
-0.5659
-0.576833
-0.507647
-0.445576
-0.0958634
-0.221132
-0.406746
-0.026652
0.0378784
0.0609033
0.0542602
-0.454718
-0.609887
-0.802485
-0.787622
0.41386
0.277893
0.119475
-0.441854
-0.0494186
-0.217817
-0.379458
-0.328267
-0.332832
0.151516
-0.0775574
-0.572317
-0.327745
0.336291
0.455611
0.510117
0.504915
0.491791
0.0416586
0.0285559
0.0176699
0.0103439
0.00995477
-0.718069
-0.660188
-0.681659
-0.59075
-0.486959
-0.561262
-0.48368
-0.475521
-0.38392
-0.392325
-0.285992
-0.095534
-0.231086
1.99063e-05
0.0466999
0.0547915
0.0465616
-0.351012
-0.496944
-0.642966
-0.689681
0.422175
0.312215
0.175014
-0.246005
0.0239442
-0.130436
-0.160114
-0.130983
0.151422
-0.055256
-0.282184
-0.503588
0.317896
0.426312
0.15765
0.451212
0.496211
0.492676
0.0334922
0.0211081
0.0116208
0.00666917
0.00567227
-0.623506
-0.54707
-0.525871
-0.384749
-0.26351
-0.361309
-0.273871
-0.219568
-0.129802
-0.139949
-0.00667563
-0.0648047
-0.155453
0.0191067
0.046791
0.0472789
0.0370597
-0.263426
-0.386167
-0.486343
-0.569522
0.442845
0.356567
0.244432
-0.0291023
0.123524
0.0764518
0.108627
-0.0295527
-0.231163
-0.428749
-0.461575
-0.00333118
0.314599
0.163741
0.378291
0.429055
0.487818
0.498876
0.0245449
0.0135536
0.00598397
0.00268967
0.00137385
-0.398474
-0.294103
-0.0794948
0.0129506
-0.0629411
0.102526
0.151795
0.144407
0.257743
-0.0301179
-0.100069
0.028375
0.0424419
0.0380857
0.0271142
-0.19019
-0.284347
-0.372448
0.471517
0.414421
0.34572
0.211978
0.29782
0.352603
-0.311015
-0.357372
-0.182584
-0.349126
-0.13392
0.0224796
0.156399
0.296603
0.330007
0.415216
0.47634
0.505202
0.0156279
0.0067142
0.00127798
-0.00129431
-0.00246138
-0.0770221
0.105033
0.266738
0.302274
0.424768
0.293288
0.45331
0.415289
0.494346
-0.00511725
-0.0554275
0.0177024
0.0303668
0.0354238
0.0283483
-0.137063
-0.196876
-0.197382
0.50315
0.480013
0.450543
0.419029
0.543219
-0.23873
-0.268235
-0.289684
-0.206203
-0.0988025
0.0383057
0.188452
0.290195
0.384574
0.457214
0.505982
0.00751688
0.000849343
-0.00275478
0.00900375
-0.00506234
-0.00609695
0.283783
0.439886
0.547969
0.563654
0.696963
0.588234
0.695385
0.628104
0.650771
0.00933539
-0.0161732
-0.0586939
0.0189988
0.0278545
0.0273041
-0.0756794
-0.106368
-0.140196
0.531485
0.542267
0.55573
0.638111
-0.179086
-0.224799
-0.195313
-0.0929196
0.0186792
0.133323
0.241766
0.340167
0.425852
0.498054
0.000682818
-0.0053001
0.00201679
0.00989929
-0.00840792
-0.00926638
0.620404
0.750136
0.746146
0.857511
0.830085
0.840702
0.742456
0.695503
0.0140884
-0.0107321
0.0195122
0.02324
-0.0296942
-0.0559039
-0.0897
0.550783
0.595054
0.615985
-0.124195
-0.158701
-0.18119
-0.115152
-0.0257876
0.0725312
0.174837
0.480955
0.278802
0.38049
0.0127735
-0.00542202
-0.00914614
0.00587749
-0.000939443
-0.0117835
-0.011169
0.867268
0.932626
0.813248
0.933563
0.898734
0.85573
0.733549
0.617019
0.00460839
0.0166355
0.0180248
-0.00973559
0.00738009
-0.0275524
-0.0569376
0.520062
0.479109
-0.0902326
-0.129342
-0.180644
-0.163919
-0.0930527
-0.0104276
0.0855911
0.386814
0.195752
0.0132872
0.00747139
-0.00761309
-0.0110868
0.000169419
-0.00631697
-0.0135743
-0.0132046
0.972458
0.952939
0.748216
0.887698
0.741142
0.597265
0.422504
0.0149808
0.0113677
0.00452947
-0.0124615
-0.0370141
0.33685
0.243628
-0.0717966
-0.121242
-0.187997
-0.229014
-0.180564
-0.117091
-0.0105525
0.180202
0.00957339
0.00248211
-0.0107798
-0.013344
-0.00445022
-0.0095868
-0.0145121
-0.0144298
0.909195
0.810642
0.558759
0.671143
0.519788
0.346577
0.135223
0.0110095
0.0115095
0.00673621
-0.00442264
-0.0267308
0.0745834
-0.0620086
-0.0657324
-0.126715
-0.206652
-0.301627
-0.292737
-0.221442
-0.0777985
0.00531226
-0.00153815
-0.0126152
-0.0141068
-0.00734337
-0.0112055
-0.0145594
-0.0148091
0.681635
0.517884
0.243164
0.34244
0.0148878
-0.198645
0.00877389
0.0115784
0.00988543
-0.000196689
-0.0233795
-0.238128
-0.372056
-0.0670797
-0.138881
-0.238863
-0.377226
-0.409509
-0.350635
0.00248706
-0.00374202
-0.0131682
-0.0138365
-0.00847841
-0.0113524
-0.0137805
-0.0143912
0.323658
0.123605
-0.122811
-0.0875169
-0.342706
-0.521204
0.00729766
0.0115861
0.01139
0.00188169
-0.0224454
-0.496653
-0.6267
-0.0701523
-0.152857
-0.274424
-0.442819
-0.558143
0.0012801
-0.00418143
-0.0125692
-0.0128711
-0.0102769
-0.00805237
-0.0123353
-0.0132809
-0.105253
-0.311889
-0.439722
-0.496455
-0.669277
-0.808043
0.00723541
0.0124673
0.0131254
0.00373479
-0.0210809
-0.674762
-0.75652
-0.074885
-0.165837
-0.303054
-0.482494
0.00174524
-0.00306286
-0.0113086
-0.00834218
-0.00650103
-0.0104604
-0.0115943
-0.531145
-0.708983
-0.787989
-0.907049
-0.863866
-0.757521
0.00871005
0.0146872
0.0160345
0.00698055
-0.0203733
-0.5132
-0.550888
-0.0776993
-0.174378
-0.321468
0.00368024
-0.00072629
-0.00816196
-0.00559224
-0.00403466
-0.00799986
-0.00945719
-0.878165
-0.995165
-0.989022
-0.880754
-0.680478
-0.470309
0.0113733
0.0181531
0.0201696
0.0113036
-0.0178224
-0.330653
-0.0747085
-0.172594
0.00682647
0.00228021
-0.00605153
-0.00435646
-0.00160054
-0.00538666
-0.0070129
-1.06451
-0.920116
-0.615108
-0.403999
-0.248087
0.0152031
0.0227304
0.0250564
0.0169533
-0.00819209
-0.135186
-0.052886
0.0104815
0.00521269
-0.00265456
0.000414129
-0.00264448
-0.0044219
-0.738776
-0.571004
-0.322319
-0.185843
-0.0911486
0.0197299
0.0275716
0.0315374
0.0239104
0.0114121
-0.0291781
0.0142972
0.00684695
-0.000105634
0.00228753
2.29686e-05
-0.00181023
-0.428847
-0.270246
-0.125659
-0.0501148
-0.00172915
0.0240665
0.0305048
0.0354476
0.0357427
0.0254219
0.0209092
0.0144396
0.0078851
0.00351782
0.00259495
0.000741895
-0.179666
-0.0849923
-0.0165478
0.0216308
0.0390664
0.0302972
0.0399247
0.0433415
0.023339
0.0152061
0.00919012
0.00569717
0.00486129
0.00313429
-0.0327499
0.014294
0.039854
0.0497967
0.04946
0.0331884
0.0429054
0.0239747
0.0152192
0.00859388
0.00648228
0.00519945
0.0376087
0.0527284
0.0562829
0.0521066
0.0437988
0.0337542
0.0231115
0.0144958
0.00893547
0.00670182
0.0588036
0.057653
0.0511452
0.0421986
0.032426
0.0089494
0.021283
0.0131299
0.00837169
0.0541034
0.0467382
0.0378314
0.0290278
0.0105698
0.0182225
0.00963511
0.0396407
0.0311903