<VTKFile type="UnstructuredGrid" version="0.1" byte_order="LittleEndian">
<UnstructuredGrid>
<Piece NumberOfPoints="1453" NumberOfCells="2614">
<PointData Scalars="abs_term_u">
<DataArray type="Float64" Name="real_part_term_u" format="ascii">
0.0210548
0.0200231
0.019963
0.0167321
0.0215421
0.0215498
0.0235096
0.0168398
0.0195281
0.0114011
0.0195795
0.0154518
0.0233766
0.0115384
0.00419577
0.022868
0.028089
0.0152721
0.0200771
0.00398175
-0.00542633
-0.0168461
0.0090049
0.020846
0.0152143
0.0282097
0.0359794
-0.0301863
-0.00520356
-0.0165874
0.00882124
0.000387534
-0.0298791
-0.0450027
-0.0618967
0.0433326
0.0344201
0.0257229
0.0137995
0.0195065
0.000259146
-0.010211
-0.0225811
0.00667415
0.0145435
0.0239658
0.0359943
0.0466451
-0.0453807
-0.0623292
-0.101088
-0.0809436
-0.0368052
0.753541
-0.00997682
-0.0223044
0.00592851
-0.00273968
-0.0804879
-0.0365158
-0.0705594
-0.0527353
0.0571644
0.0425914
0.0328583
0.0239562
0.0138123
0.754523
0.746766
-0.00405687
-0.0144733
-0.026197
0.00398405
0.0130962
0.0223618
0.0329755
0.0757494
0.0475516
0.0593667
-0.122687
-0.145605
-0.169698
-0.0529961
-0.0702247
-0.111162
-0.089741
-0.0422124
0.717965
0.679511
0.733745
0.748891
0.745973
-0.0122465
-0.0269609
0.0012507
-0.100673
-0.122259
-0.0898084
-0.0412259
-0.0769943
-0.0580342
-0.14519
-0.16935
-0.194528
-0.220648
0.0768001
0.0997415
0.0558007
0.0352785
0.0172986
0.162406
0.543788
0.634887
0.751507
0.745952
0.725731
0.684731
-0.194852
-0.0109838
-0.0286906
0.0040593
0.022669
0.0434261
0.125168
0.0948259
0.0671444
-0.133507
-0.156817
-0.181678
0.14928
-0.0593518
-0.0781859
-0.121941
-0.100261
-0.0429827
0.185642
0.238115
0.589863
0.634292
0.711242
0.675211
0.741203
0.729128
0.739264
0.489816
0.53771
-0.220974
-0.247745
-0.0131402
-0.0282068
0.00462898
-0.111333
-0.133436
-0.0985947
-0.0443967
-0.0810533
-0.0639777
-0.156679
-0.181122
-0.247607
-0.207305
-0.233871
-0.275222
-0.303236
-0.331537
0.272928
0.21675
0.376441
0.323724
0.0732416
0.099737
0.127948
0.0491718
0.0259142
0.0661722
0.162692
0.439744
0.506728
0.574115
0.6331
0.745174
0.741184
0.721787
0.68474
-0.207581
-0.0264157
-0.0114628
0.00866833
0.0318087
0.0590114
0.120518
0.0880714
-0.192552
-0.143984
-0.167733
0.152462
-0.0618327
-0.0871415
-0.120586
-0.0401803
0.192123
0.240631
0.303118
0.428096
0.36207
0.584237
0.62838
0.664014
0.701961
0.730577
0.729108
0.718549
0.478012
0.526924
-0.359708
-0.238938
-0.263812
-0.275248
-0.331385
-0.303145
-0.388139
-0.360071
-0.388625
-0.0160616
0.0120697
-0.142889
-0.121724
-0.102739
-0.0371621
-0.0672412
-0.165763
-0.191807
-0.260854
-0.220354
-0.246727
-0.288953
-0.317213
-0.347034
0.239698
0.27289
0.20599
0.382925
0.326028
0.0903547
0.124012
0.0729778
0.0425761
0.156172
0.446224
0.510243
0.573529
0.735847
0.633853
0.733665
0.715836
0.682392
-0.227006
-0.208494
-0.0125109
0.0149726
0.0436509
0.0759097
0.112448
-0.163024
0.144528
-0.0586651
-0.0800258
-0.110223
-0.0334634
0.182332
0.228098
0.293946
0.415314
0.349008
0.573697
0.615581
0.717545
0.649437
0.686983
0.717406
0.704177
0.702671
0.465368
0.512987
-0.416359
-0.444333
-0.472049
-0.373821
-0.347933
-0.272378
-0.288955
-0.320589
-0.39993
-0.499128
-0.52555
-0.59961
-0.575932
-0.551272
-0.848475
-0.848973
-0.849237
-0.84924
-0.847653
-0.848482
-0.848994
-0.41708
-0.52673
-0.44521
-0.472911
-0.500163
-0.374288
-0.400172
-0.00609498
0.0226518
-0.0280658
-0.136188
-0.104776
-0.0646201
-0.169721
-0.207072
-0.272551
-0.245612
-0.30991
-0.351995
0.2621
0.204481
0.384063
0.322558
0.104601
0.0519377
0.14512
0.443259
0.506839
0.569752
0.724001
0.723051
0.71037
0.629101
0.707031
0.675142
-0.846493
-0.844963
-0.843008
-0.840589
-0.837645
-0.824879
-0.81913
-0.704328
-0.241769
-0.202001
-0.00373359
0.0277207
0.0572619
0.0979327
-0.153752
0.126288
-0.0638959
-0.103159
-0.0213683
0.16304
0.209027
0.280369
0.399071
0.333463
0.558659
0.599787
0.702569
0.658806
0.688627
0.685735
0.686639
0.446209
0.492498
-0.458146
-0.432547
-0.483023
-0.372534
-0.294101
-0.323236
-0.417481
-0.51385
-0.537812
-0.622402
-0.643927
-0.612003
-0.58973
-0.561099
-0.701647
-0.66442
-0.683616
-0.73403
-0.718497
-0.748412
-0.793999
-0.802595
-0.810222
-0.832162
-0.827795
-0.81694
-0.822746
-0.835858
-0.838971
-0.845384
-0.847743
-0.846727
-0.841573
-0.84367
-0.848662
-0.848078
-0.849002
-0.849122
-0.849043
-0.846995
-0.848002
-0.84866
-0.686124
-0.666696
-0.552525
-0.577474
-0.601382
-0.624217
-0.645981
-0.541675
-0.431164
-0.514458
-0.459223
-0.489218
-0.398141
0.013529
-0.0184478
-0.0568365
-0.138957
-0.0977921
-0.183641
-0.236387
-0.28495
-0.337102
-0.377933
0.260215
0.195926
0.376708
0.314643
0.0733153
0.129036
0.4336
0.498746
0.562691
0.710272
0.694295
0.695804
0.695897
0.616518
0.660821
-0.845763
-0.829873
-0.834076
-0.843841
-0.841794
-0.839175
-0.836315
-0.827983
-0.804972
-0.812453
-0.822209
-0.816625
-0.796415
-0.786832
-0.721284
-0.736853
-0.776089
-0.764282
-0.751177
-0.697013
-0.712552
-0.249261
-0.196741
0.0252933
0.0742395
-0.137075
0.100284
-0.05131
-0.0847935
-0.00803214
0.135405
0.670177
0.181485
0.266264
0.367459
0.541823
0.59599
0.670072
0.639728
0.649996
0.66927
0.416106
0.461245
-0.458128
-0.497895
-0.30962
-0.36242
-0.427877
-0.53727
-0.632379
-0.653341
-0.61553
-0.575763
-0.76158
-0.773494
-0.784265
-0.78941
-0.711219
-0.694776
-0.672653
-0.741159
-0.72679
-0.755364
-0.797699
-0.806863
-0.813468
-0.833751
-0.830091
-0.825545
-0.819161
-0.837585
-0.840276
-0.844519
-0.845929
-0.847169
-0.842754
-0.848169
-0.847018
-0.84831
-0.848498
-0.846608
-0.847663
-0.675391
-0.656984
-0.565367
-0.589764
-0.611512
-0.637822
-0.558325
-0.528548
-0.450431
-0.492607
-0.422844
0.681139
0.666692
0.00793169
-0.0628072
-0.137362
-0.210494
-0.270997
-0.319474
-0.377704
0.181872
0.258286
0.352758
0.0576275
0.115341
0.412952
0.482555
0.54914
0.679316
0.648753
0.68077
0.66957
0.586
-0.844341
-0.844256
-0.832658
-0.841608
-0.837073
-0.827973
-0.800878
-0.810172
-0.819329
-0.792839
-0.78276
-0.728058
-0.745977
-0.771935
-0.758839
-0.688093
-0.711661
-0.249783
-0.307078
-0.177545
0.0351376
-0.0993584
0.0623675
-0.0376622
0.0922685
0.656019
0.65557
0.64196
0.180656
0.297503
0.519146
0.57373
0.617848
0.597436
0.635171
0.35248
0.422753
-0.475651
-0.517059
-0.444852
-0.380454
-0.56419
-0.653292
-0.623224
-0.767274
-0.779926
-0.790616
-0.71387
-0.689569
-0.740878
-0.759933
-0.803046
-0.81312
-0.835494
-0.830392
-0.821935
-0.839431
-0.844438
-0.845841
-0.84188
-0.846173
-0.844921
-0.846801
-0.846543
-0.844891
-0.84282
-0.660845
-0.679855
-0.590614
-0.631219
-0.557769
-0.495746
-0.456162
0.653594
0.666982
0.654625
-0.016501
-0.0954866
-0.167358
-0.250325
-0.32305
-0.403948
0.208381
0.311693
0.0441007
0.127333
0.379142
0.469669
0.622051
0.645545
0.531283
-0.841672
-0.8407
-0.833088
-0.837403
-0.825322
-0.801364
-0.813492
-0.786352
-0.73749
-0.762109
-0.703479
-0.239669
-0.337267
-0.140821
-0.0235668
0.112342
0.0495771
0.629956
0.620068
0.634335
0.624593
0.199269
0.487342
0.546859
0.534914
0.583292
0.298114
0.387305
-0.506269
-0.564315
-0.448011
-0.625347
-0.677855
-0.776979
-0.79519
-0.722791
-0.760219
-0.8126
-0.834574
-0.827419
-0.838075
-0.839538
-0.84247
-0.841007
-0.83884
-0.84203
-0.834584
-0.666246
-0.60684
-0.549643
-0.493546
0.64278
0.633386
0.638827
0.625765
-0.043692
-0.146659
-0.268064
-0.378915
0.231171
0.0302286
0.123502
0.315726
0.390882
0.569915
0.463175
-0.837366
-0.833409
-0.831144
-0.833583
-0.820235
-0.802231
-0.779452
-0.749699
-0.714664
-0.693463
-0.395113
-0.210818
-0.305082
-0.082783
0.017935
0.620976
0.612436
0.617325
0.5732
0.134601
0.436706
0.485482
0.27509
-0.559186
-0.495235
-0.658935
-0.711883
-0.791412
-0.760735
-0.810011
-0.823004
-0.831969
-0.83465
-0.832594
-0.828509
-0.82473
-0.810547
-0.640356
-0.58105
-0.520516
0.625006
0.617653
0.630023
0.590677
0.548372
0.634445
-0.0841846
-0.220194
-0.323788
-0.437931
0.165665
0.0155253
0.23702
0.32112
0.444559
-0.829195
-0.814665
-0.828231
-0.811258
-0.778835
-0.740443
-0.716104
-0.392249
-0.194576
-0.0619525
0.529223
0.640737
0.588517
0.431694
0.0540538
0.293618
-0.609695
-0.542016
-0.697257
-0.739436
-0.773006
-0.792539
-0.81738
-0.823226
-0.821803
-0.815121
-0.797732
-0.769199
-0.765167
-0.663402
-0.607599
-0.571501
0.562267
0.602136
0.455723
0.656328
-0.173581
-0.326069
-0.486819
0.0612104
-0.105466
0.145723
0.215755
-0.818017
-0.803529
-0.774748
-0.819368
-0.808298
-0.806716
-0.775712
-0.733675
-0.805038
-0.517609
-0.283123
-0.193323
0.382483
0.198997
0.0498763
-0.679741
-0.766097
-0.795941
-0.806225
-0.806665
-0.808232
-0.784292
-0.785886
-0.705301
-0.728511
-0.702447
-0.685466
-0.65229
0.390395
-0.326011
-0.552992
-0.0928215
-0.0653662
-0.788587
-0.76034
-0.698901
-0.810627
-0.774403
-0.791823
-0.807754
-0.70558
-0.459504
-0.204614
-0.806417
-0.81241
-0.799963
-0.596077
-0.7276
-0.605346
-0.605066
-0.454586
-0.77295
-0.698105
-0.199464
-0.467681
-0.711738
-0.563145
-0.783595
-0.69364
-0.814448
-0.811381
-0.730484
-0.781569
-0.800193
-0.633247
-0.43754
-0.5184
-0.396124
-0.386576
-0.238571
-0.232567
-0.828456
-0.738704
-0.50934
-0.723617
-0.578998
-0.772336
-0.822105
-0.646318
-0.344165
-0.342797
-0.148927
-0.160116
-0.0200695
0.130212
-0.832564
-0.329274
-0.565227
-0.601313
-0.383885
0.0179429
0.0322946
0.360337
0.1077
0.290383
0.46476
0.623619
-0.390753
-0.178561
0.298628
0.518032
0.751431
0.349754
0.543803
0.678981
0.785583
0.828124
0.301453
0.776561
0.834822
0.7879
0.740242
0.806086
0.831231
0.780958
0.655712
0.779897
0.750275
0.606493
0.473162
0.824741
0.754998
0.602367
0.381021
0.130537
0.751064
0.228797
-0.0546959
0.56248
0.31124
0.0397183
-0.244661
-0.487092
0.23181
-0.439711
-0.697254
-0.031299
-0.32292
-0.566084
-0.74296
-0.830335
-0.433049
-0.823829
-0.812903
-0.639912
-0.785361
-0.833727
-0.787423
-0.640288
-0.81439
-0.671879
-0.404651
-0.821989
-0.737817
-0.577818
-0.333354
-0.0428824
-0.669624
-0.0834956
0.28051
-0.46881
-0.209461
0.048939
0.335945
0.585
-0.0877277
0.557576
0.766597
0.204786
0.449954
0.646085
0.788542
0.834743
0.550029
0.834959
0.760563
0.542448
0.750697
0.818454
0.826952
0.733327
0.83526
0.572713
0.243556
0.194408
-0.117792
0.786657
0.658091
0.472272
0.571823
-0.188829
-0.0595799
-0.429099
-0.455572
-0.607383
0.303552
0.0742224
-0.0591966
-0.53047
-0.722153
-0.656439
-0.809432
-0.828444
-0.772087
-0.419558
-0.650289
-0.754787
-0.830428
-0.797959
-0.73269
-0.828436
-0.664958
-0.438346
-0.823308
-0.821138
-0.770456
-0.597484
-0.356819
-0.464442
-0.0105312
0.00244741
-0.65245
-0.456128
-0.301963
0.0215998
0.323509
0.210691
0.639701
0.516851
-0.0734815
0.203574
0.352268
0.628241
0.783267
0.744102
0.831671
0.836752
0.557982
0.729018
0.77708
0.827626
0.746301
0.794605
0.4957
0.618638
0.826937
0.77794
0.741788
0.493671
0.22943
0.335149
-0.0903095
-0.0127299
0.554968
0.321265
0.205713
-0.158396
-0.435447
-0.339505
-0.665076
-0.607459
-0.0708521
-0.347366
-0.482445
-0.708723
-0.817549
-0.796659
-0.807525
-0.838936
-0.619778
-0.786887
-0.827123
-0.804028
-0.681573
-0.731006
-0.459003
-0.514973
-0.821332
-0.713871
-0.611314
-0.380556
-0.103811
-0.20664
0.0693022
0.120849
-0.486264
-0.175461
-0.156732
0.0367492
0.285658
0.529296
0.454996
0.661165
0.162771
0.479423
0.444721
0.640172
0.770048
0.832486
0.818987
0.804307
0.701322
0.82809
0.817945
0.829326
0.760729
0.601601
0.65744
0.385232
0.80978
0.642419
0.699228
0.515139
0.260497
-0.0169882
0.064393
-0.277187
0.425526
0.0357255
0.153926
-0.138834
-0.40866
-0.629529
-0.564746
-0.772065
-0.274954
-0.595077
-0.535323
-0.709347
-0.812336
-0.823654
-0.82451
-0.739983
-0.778237
-0.847541
-0.842032
-0.813526
-0.689964
-0.498829
-0.544826
-0.24436
-0.777884
-0.549668
-0.617815
-0.402295
-0.137489
0.124124
0.0875891
0.428507
-0.259386
0.103938
-0.0137909
0.266051
0.5172
0.717774
0.658728
0.813581
0.400237
0.693384
0.626348
0.766879
0.829282
0.783449
0.805579
0.639409
0.832528
0.834489
0.842365
0.768679
0.609464
0.452345
0.425031
0.071835
0.67139
0.439211
0.537333
0.27818
-0.0094529
-0.410629
-0.48303
-0.239118
0.186011
0.0188262
-0.238363
-0.109281
-0.393307
-0.627955
-0.744925
-0.753008
-0.434663
-0.624986
-0.762855
-0.685724
-0.810593
-0.803847
-0.831316
-0.76491
-0.830587
-0.846355
-0.78957
-0.823604
-0.700453
-0.42426
-0.570947
-0.280372
-0.684155
-0.525291
-0.313792
-0.428781
-0.141525
0.254449
0.0330839
0.390769
0.0289687
-0.0411802
0.364066
0.238611
0.510592
0.766201
0.657661
0.814974
0.546629
0.631834
0.804429
0.75226
0.834645
0.787495
0.838005
0.705178
0.827611
0.833227
0.718647
0.778059
0.617599
0.39574
0.4397
0.142513
0.629093
0.46342
0.171559
0.302006
0.00634509
-0.386779
-0.186785
-0.512329
-0.483995
0.00897082
-0.172892
-0.622892
-0.370781
-0.616293
-0.770498
-0.768512
-0.84688
-0.827253
-0.638102
-0.804661
-0.803978
-0.840156
-0.816645
-0.798252
-0.630125
-0.746689
-0.618316
-0.82576
-0.71969
-0.718177
-0.53342
-0.388563
-0.00958104
-0.364462
-0.00788298
-0.440257
-0.168853
0.109225
0.381691
0.621779
0.0361496
0.278922
0.602055
0.287527
0.232141
0.48909
0.690598
0.810084
0.848278
0.81732
0.548432
0.761591
0.289201
0.0974037
0.288075
0.288241
0.28953
0.736843
0.832424
0.822322
0.73258
0.528977
0.503406
0.735004
0.826723
-0.406698
-0.121325
0.157626
0.167342
0.29036
0.291167
0.291921
0.780645
-0.837167
-0.13252
-0.710942
0.642446
0.4382
0.204113
0.292493
-0.142207
0.204412
0.546558
-0.657827
-0.370919
-0.049269
0.140907
0.178652
0.185883
0.173653
0.320344
-0.790933
-0.816705
-0.475501
0.0579966
-0.21896
0.29317
0.299004
0.298346
0.301163
-0.702299
-0.443996
-0.0948363
-0.583639
-0.287045
-0.00125335
0.129234
0.0308896
-0.333206
-0.829778
-0.726689
-0.753449
-0.544471
0.293993
0.16423
0.299505
-0.810464
-0.387282
-0.80408
-0.686388
0.29974
0.175624
-0.463752
-0.184715
-0.0440287
-0.758911
-0.823209
-0.623718
-0.826582
0.29447
0.170165
-0.0989636
0.147827
0.168656
-0.341285
-0.818577
-0.686597
-0.824541
0.299867
-0.0122683
-0.282811
-0.474628
-0.809992
-0.740418
0.0436714
0.295191
0.176783
-0.0544362
0.141666
-0.3591
-0.727948
-0.596918
-0.68457
0.299955
0.1687
-0.141929
-0.333109
-0.564934
0.0239311
0.296021
0.175937
-0.0425081
-0.295636
-0.496344
-0.375814
0.135816
0.300033
-0.149777
-0.294649
0.0270619
-0.201071
0.296883
0.15862
-0.041705
-0.187857
-0.11699
0.134479
0.300135
-0.0210463
0.184323
0.297526
0.049955
0.0222603
0.0479635
0.193633
0.299746
0.18062
0.298168
0.175044
0.173246
0.299404
0.298748
0.299174
</DataArray>
<DataArray type="Float64" Name="imag_part_term_u" format="ascii">
1.08749
1.08707
1.08693
1.08538
1.08739
1.08747
1.08765
1.08566
1.0866
1.08283
1.08641
1.08443
1.08724
1.08324
1.0798
1.0873
1.08794
1.08471
1.08609
1.07925
1.07465
1.06897
1.08142
1.08591
1.08341
1.08722
1.08793
1.06219
1.0753
1.06971
1.08172
1.07777
1.06299
1.05509
1.04595
1.08777
1.0877
1.08692
1.08338
1.0849
1.07718
1.07207
1.06585
1.07956
1.08164
1.08504
1.08681
1.08747
1.05424
1.0451
1.02301
1.0347
1.05856
-0.068414
1.07275
1.06663
1.07975
1.07577
1.03551
1.05934
1.04099
1.05076
1.08712
1.0869
1.08644
1.08471
1.0821
-0.0661389
0.0931326
1.07444
1.06945
1.06337
1.07707
1.0794
1.08258
1.08426
1.08486
1.08576
1.0863
1.00997
0.995527
0.97965
1.04999
1.04057
1.0169
1.02951
1.05511
0.272313
0.413023
0.174872
-0.0717511
0.0604629
1.07095
1.06357
1.07642
1.02371
1.01056
1.03
1.05616
1.03687
1.04728
0.995964
0.979859
0.962248
0.943043
1.08469
1.0811
1.08565
1.08463
1.08093
1.06335
0.71639
0.539691
-0.0649911
0.0877229
0.236203
0.402988
0.962265
1.06993
1.0609
1.07464
1.07968
1.08224
1.07462
1.08054
1.08354
1.00316
0.988206
0.971497
1.06609
1.04595
1.03552
1.0101
1.02293
1.05341
1.05237
1.02594
0.631743
0.530966
0.286491
0.40996
-0.0759817
0.17813
0.0632494
0.795175
0.719928
0.943272
0.92282
1.06894
1.06163
1.07452
1.01719
1.00347
1.02443
1.05298
1.03387
1.04324
0.988383
0.971762
0.922174
0.953048
0.93305
0.899647
0.875558
0.849854
1.00745
1.04068
0.925031
0.9722
1.08275
1.0801
1.07429
1.08236
1.07953
1.07867
1.06264
0.861017
0.77611
0.668583
0.545022
-0.0648778
0.0887004
0.240872
0.398104
0.953208
1.06017
1.06704
1.07233
1.07657
1.07879
1.0731
1.07773
0.964024
0.996314
0.980899
1.06184
1.04324
1.02917
1.01034
1.05261
1.04436
1.01694
0.983249
0.868204
0.929977
0.631786
0.527987
0.417376
0.297758
-0.0809421
0.0695084
0.190253
0.802236
0.724812
0.824944
0.929784
0.910096
0.900663
0.851702
0.876961
0.796547
0.822486
0.793516
1.06479
1.07225
0.997247
1.01051
1.02122
1.05308
1.04025
0.982252
0.964341
0.911664
0.943588
0.923257
0.888194
0.863263
0.835398
1.02736
1.00848
1.04369
0.921796
0.970399
1.07748
1.07266
1.07436
1.07615
1.06048
0.85469
0.770357
0.66485
-0.0656382
0.533599
0.0844313
0.237111
0.388373
0.939209
0.952899
1.06308
1.06918
1.0727
1.07318
1.06991
0.983892
1.05768
1.0426
1.03096
1.01469
1.0518
1.03962
1.01208
0.978425
0.871311
0.928893
0.634506
0.53365
-0.0864235
0.428275
0.313172
0.0622941
0.205618
-0.0921685
0.804674
0.728163
0.76668
0.735345
0.702364
0.811349
0.836519
0.903879
0.889359
0.861697
0.784746
0.668086
0.632609
0.51988
0.558256
0.59583
-0.268892
-0.27335
-0.275095
-0.274153
-0.255174
-0.264161
-0.270493
0.76292
0.627045
0.73099
0.697662
0.662967
0.808572
0.781541
1.06292
1.06902
1.05166
1.00106
1.01831
1.03805
0.979406
0.953701
0.902537
0.924861
0.870969
0.831821
1.01292
1.03848
0.918463
0.968049
1.06945
1.06901
1.0546
0.853135
0.766465
0.657618
-0.0670569
0.0805975
-0.0688734
0.523937
0.230843
0.380779
-0.243531
-0.229206
-0.212469
-0.193191
-0.171575
-0.0932719
-0.0631931
0.310409
0.928612
0.957634
1.06066
1.06648
1.06694
1.06485
0.988168
1.05251
1.03618
1.01469
1.05032
1.03372
1.00655
0.973945
0.873198
0.927901
0.639065
0.540815
0.0593678
0.367471
0.210633
0.0577258
-0.0978555
0.809694
0.735278
0.719505
0.749313
0.689261
0.813756
0.887459
0.860298
0.768053
0.649225
0.615804
0.480487
0.440762
0.499281
0.537067
0.581942
0.319363
0.400411
0.359958
0.238329
0.27862
0.198311
0.0459737
0.0108324
-0.0229431
-0.140611
-0.113927
-0.0552098
-0.0854159
-0.165009
-0.187232
-0.239509
-0.261709
-0.251895
-0.207063
-0.224409
-0.272171
-0.267598
-0.275481
-0.275987
-0.273417
-0.250751
-0.26089
-0.268576
0.351444
0.39242
0.590022
0.551893
0.513
0.473389
0.433251
0.606503
0.747498
0.644425
0.714767
0.677452
0.785272
1.06081
1.04972
1.03706
0.997915
1.01931
0.96994
0.933055
0.894279
0.848445
0.808541
1.0054
1.03126
0.917395
0.964885
1.06128
1.04542
0.852593
0.761424
0.648742
0.0784876
0.23058
-0.0707694
0.0762812
0.523446
0.38632
-0.238613
-0.121551
-0.147539
-0.221135
-0.204075
-0.183422
-0.163011
-0.110925
0.00223758
-0.0310543
-0.0792324
-0.0509314
0.0373443
0.0736147
0.269367
0.228919
0.111226
0.149565
0.188985
0.327958
0.291263
0.924221
0.960974
1.05893
1.05805
0.994807
1.04513
1.03537
1.01839
1.04676
1.02739
-0.103142
1.00257
0.963662
0.885286
0.639724
0.511117
0.21333
0.365376
0.213411
0.0472943
0.821301
0.748789
0.721293
0.672615
0.877853
0.826879
0.760825
0.619095
0.463162
0.423075
0.495599
0.562644
0.158893
0.120323
0.0827053
0.0638235
0.297001
0.335917
0.384125
0.219233
0.258102
0.178333
0.0314389
-0.00762719
-0.0383123
-0.151776
-0.128284
-0.101537
-0.066843
-0.178404
-0.198308
-0.233719
-0.24691
-0.258955
-0.219848
-0.276065
-0.270799
-0.28088
-0.277726
-0.254588
-0.270066
0.375148
0.412294
0.571181
0.53276
0.496375
0.449326
0.583926
0.627298
0.727105
0.67464
0.762412
-0.0724327
-0.0737545
1.0506
1.03024
0.996432
0.95227
0.908622
0.867588
0.814585
1.02362
0.992709
0.925193
1.04763
1.03376
0.856537
0.759839
0.646009
0.233015
0.378639
0.077534
0.211703
0.551332
-0.234103
-0.251595
-0.139259
-0.207688
-0.171312
-0.112275
0.01953
-0.0204221
-0.0651251
0.0515923
0.0884308
0.25286
0.204703
0.125629
0.166816
0.350701
0.295355
0.925794
0.884359
0.971547
1.04681
1.00798
1.03532
1.03225
1.02145
0.0266311
-0.107647
-0.111303
0.98567
0.922274
0.641783
0.512883
0.368999
0.36314
0.182377
0.856828
0.762764
0.705766
0.651562
0.749369
0.817376
0.588307
0.426292
0.488963
0.141382
0.0986609
0.0601616
0.292917
0.351443
0.222577
0.166441
0.00963143
-0.0368944
-0.167254
-0.132576
-0.0839075
-0.198651
-0.242258
-0.26119
-0.232845
-0.288477
-0.280835
-0.289245
-0.283922
-0.275772
-0.306157
0.407331
0.371596
0.53395
0.464955
0.589707
0.675837
0.733287
-0.0745416
0.0740884
0.0553914
1.03599
1.01059
0.977287
0.926383
0.871187
0.796512
0.99915
0.938857
1.03291
1.01534
0.865699
0.744492
0.405548
0.25798
0.614342
-0.230286
-0.266352
-0.148072
-0.189854
-0.100557
0.0182241
-0.0363916
0.0777219
0.231158
0.159978
0.321454
0.934498
0.867353
0.987555
1.02437
0.989841
1.01055
-0.113964
-0.115338
0.0989781
0.0436868
0.953125
0.650559
0.519624
0.49441
0.340069
0.868923
0.768303
0.676826
0.600314
0.761707
0.503779
0.386725
0.111046
0.0439029
0.278696
0.17048
-0.0356247
-0.171944
-0.125752
-0.214902
-0.24779
-0.270114
-0.30512
-0.299841
-0.307201
-0.336049
0.406616
0.515958
0.615698
0.704801
-0.0746936
-0.0742875
0.0982192
0.249954
1.01886
0.985196
0.919611
0.834642
0.967824
1.01797
0.999871
0.891375
0.795208
0.479296
0.677569
-0.243283
-0.300566
-0.149806
-0.206158
-0.0765229
0.0162484
0.110245
0.206106
0.304287
0.364477
0.82944
0.954261
0.901784
0.998597
0.996349
-0.112881
0.0439454
-0.115509
0.297517
0.950239
0.675426
0.550219
0.850823
0.629443
0.737655
0.476066
0.331559
0.0631472
0.181383
-0.0298737
-0.118547
-0.196691
-0.269782
-0.326175
-0.346515
-0.366958
-0.400175
0.47836
0.595041
0.696696
0.103486
0.0912576
-0.0725553
0.298441
0.458307
-0.0686885
1.00052
0.950953
0.887706
0.801086
0.971166
1.0029
0.914703
0.823235
0.662841
-0.275264
-0.371257
-0.172747
-0.0265874
0.124608
0.250995
0.336709
0.858093
0.963881
0.98129
0.354456
-0.106906
0.115954
0.584578
0.949627
0.794778
0.596377
0.716868
0.438423
0.30127
0.163577
0.066988
-0.108313
-0.196597
-0.279918
-0.355315
-0.432445
-0.46731
-0.490315
0.469096
0.583194
0.663283
0.335563
0.157657
0.600597
-0.0612443
0.971702
0.897936
0.785483
0.978105
0.984442
0.934247
0.873862
-0.268387
-0.370248
-0.462555
-0.150569
-0.0123686
-0.264524
0.164206
0.320084
0.0196739
0.786512
0.938909
0.963712
0.680624
0.838702
0.930857
0.538534
0.265899
0.0927684
-0.0164933
-0.180515
-0.280759
-0.394734
-0.289537
-0.547383
-0.548082
-0.578784
0.481417
0.594869
0.7193
0.917644
0.75721
0.989381
0.986135
-0.370348
-0.462412
-0.571986
-0.15979
-0.358826
0.160451
-0.0573848
0.583266
0.881001
1.00604
0.0302197
0.158921
-0.197023
-0.681091
-0.452508
-0.641159
-0.685394
-0.785072
0.338533
0.591485
1.00661
0.87848
-0.524891
-0.70109
-0.256437
-0.495237
-0.0534733
0.284775
0.656268
-0.172231
-0.0466776
-0.517889
-0.77315
-0.69238
-0.813641
-0.801121
-0.864948
-0.855713
0.204257
0.643506
-0.716266
-0.390705
-0.611529
-0.233346
-0.0784129
-0.426121
-0.753687
-0.699789
-0.855921
-0.858008
-0.888794
-0.866081
-0.110432
-0.777752
-0.594147
-0.522292
-0.670223
-0.81655
-0.778728
-0.757944
-0.832154
-0.805584
-0.72006
-0.570074
-0.701488
-0.797211
-0.736205
-0.63327
-0.350355
-0.73332
-0.626341
-0.492655
-0.286798
-0.063078
-0.775225
-0.277822
-0.0129658
0.255121
-0.367907
-0.199736
0.0341462
0.281542
0.509304
-0.280668
0.380274
0.579271
0.669169
0.107158
0.360406
0.578473
0.739111
0.814284
0.397928
0.795533
0.832338
0.634486
0.787061
0.837547
0.792674
0.668331
0.8291
0.69784
0.458482
0.854014
0.778911
0.611822
0.3744
0.0976114
0.728873
0.145277
-0.212659
0.544812
0.279341
0.00945239
-0.284616
-0.542784
0.166552
-0.50438
-0.731135
-0.128701
-0.391626
-0.607355
-0.769001
-0.83018
-0.498781
-0.823317
-0.776179
-0.696575
-0.815677
-0.838514
-0.762667
-0.587367
-0.839906
-0.606894
-0.315806
-0.822241
-0.710154
-0.532633
-0.270469
0.0479859
-0.637505
0.00814032
0.364009
0.644187
-0.375719
-0.174003
0.115254
0.409281
-0.0261268
0.619609
0.805181
0.81445
0.823476
0.267779
0.510657
0.691528
0.600997
0.815191
0.835416
0.714247
0.701691
0.550092
0.780774
0.832547
0.833587
0.643941
0.416063
0.512797
0.187323
0.124424
-0.309276
0.735425
0.524349
0.326815
0.0482919
-0.255148
-0.404362
-0.150395
-0.526394
-0.710898
0.139118
-0.12159
-0.296642
-0.578222
-0.760299
-0.724753
-0.859257
-0.836418
-0.503686
-0.685265
-0.76896
-0.832325
-0.775311
-0.823528
-0.549034
-0.662049
-0.82065
-0.798802
-0.747512
-0.54895
-0.291392
-0.394555
0.1174
-0.088068
-0.611726
-0.392397
-0.285635
0.0914118
0.383053
0.291819
0.687278
0.591142
-0.00898199
0.268691
0.367537
0.671592
0.811084
0.795816
0.830188
0.867937
0.605164
0.753017
0.802263
0.817705
0.717256
0.780978
0.540343
0.570132
0.815302
0.744727
0.673689
0.436477
0.164564
0.270154
-0.226255
0.0164043
0.540484
0.244039
0.0833322
-0.228903
-0.495068
-0.410745
-0.696459
-0.689724
-0.0940906
-0.414521
-0.575113
-0.745782
-0.838161
-0.829729
-0.847218
-0.836935
-0.665662
-0.801892
-0.795107
-0.83175
-0.784153
-0.649099
-0.714448
-0.534795
-0.802901
-0.66728
-0.688628
-0.524144
-0.319316
-0.0511201
-0.139904
0.238191
-0.432049
-0.0955217
-0.138964
0.0938414
0.351297
0.585793
0.52171
0.747371
0.21251
0.543604
0.459408
0.660938
0.797664
0.839646
0.839445
0.791671
0.721167
0.82839
0.820067
0.822296
0.727986
0.545358
0.611146
0.30309
0.784084
0.582836
0.640689
0.442669
0.190481
-0.0855289
-0.00680379
-0.359035
0.316153
-0.0455349
0.0399584
-0.210841
-0.468014
-0.658858
-0.614855
-0.78579
-0.346391
-0.651818
-0.57856
-0.739156
-0.822197
-0.817616
-0.814055
-0.700386
-0.810269
-0.843793
-0.844893
-0.792974
-0.647554
-0.408789
-0.485377
-0.128492
-0.744944
-0.487053
-0.563344
-0.334852
-0.0462917
0.237316
0.154834
0.51144
-0.1873
0.184155
0.0865285
0.339344
0.565493
0.669617
0.696331
0.808736
0.547032
0.737982
0.652625
0.787945
0.827067
0.69811
0.650094
0.780625
0.818054
0.856059
0.817917
0.834152
0.735851
0.546998
0.321933
0.353766
0.718727
0.570615
0.374138
0.481456
0.206577
-0.125657
-0.140892
-0.314432
0.151367
-0.0481996
-0.30676
-0.179476
-0.461506
-0.71565
-0.590391
-0.772398
-0.500266
-0.662464
-0.788841
-0.724097
-0.820831
-0.786929
-0.821686
-0.72501
-0.83198
-0.855594
-0.76011
-0.800848
-0.6556
-0.326716
-0.512639
-0.204792
-0.616538
-0.572966
-0.249221
-0.364884
-0.0687761
0.24914
0.1596
0.449021
-0.110631
0.0993659
0.423144
0.306041
0.564609
0.753697
0.697067
0.818805
0.550705
0.694531
0.817174
0.779664
0.833015
0.741077
0.810807
0.656537
0.677636
0.838268
0.812102
0.528766
0.750957
0.570183
0.304599
0.369186
0.0730886
0.0964218
0.553611
0.12023
0.236467
-0.0645827
-0.229562
-0.264245
-0.56729
-0.324782
-0.544955
-0.131163
-0.382459
-0.429725
-0.648627
-0.763281
-0.844286
-0.734022
-0.825246
-0.706502
-0.817985
-0.83486
-0.758886
-0.579743
-0.8142
-0.7785
-0.565294
-0.787917
-0.801757
-0.682353
-0.488061
-0.252606
0.0652584
0.059647
-0.614725
-0.319479
-0.813577
-0.818825
-0.778868
-0.774429
-0.775391
-0.386558
-0.100645
0.195348
0.431195
0.668076
0.644239
0.367301
-0.0123126
-0.761965
-0.813788
-0.813033
-0.809917
-0.775952
-0.776535
-0.776868
0.28617
-0.211764
0.835713
0.467641
0.539451
0.722164
0.822699
-0.776247
0.811928
0.796638
0.619928
-0.509763
-0.743078
-0.827319
-0.817173
-0.808879
-0.807058
-0.811255
0.768316
-0.264596
0.201808
0.696536
0.835206
0.813906
-0.775985
-0.773509
-0.762466
-0.794042
0.447191
0.697513
0.824887
-0.591433
-0.778112
-0.829634
-0.818161
-0.827356
0.762532
-0.0493581
-0.404875
0.382822
0.632643
-0.77699
-0.803121
-0.762277
0.185255
-0.757374
-0.216263
0.479066
-0.762039
-0.811508
-0.687608
-0.807365
-0.828122
0.335886
-0.157969
-0.552284
0.115776
-0.775576
-0.811158
-0.80324
-0.803287
-0.800142
-0.742511
-0.102155
-0.466218
-0.0354448
-0.763535
-0.8301
-0.781981
-0.679878
-0.188691
-0.380087
-0.826049
-0.773527
-0.807993
-0.816321
-0.80855
-0.739417
-0.364998
-0.564691
-0.45972
-0.765384
-0.803787
-0.817297
-0.753882
-0.6072
-0.826385
-0.771592
-0.806928
-0.820894
-0.765547
-0.652388
-0.735335
-0.811823
-0.766943
-0.809898
-0.771568
-0.823761
-0.79624
-0.770265
-0.809839
-0.820613
-0.802638
-0.814816
-0.812078
-0.768261
-0.826722
-0.803244
-0.76899
-0.821727
-0.823482
-0.821234
-0.799744
-0.76772
-0.804927
-0.768695
-0.805254
-0.805773
-0.76775
-0.768692
-0.768414
</DataArray>
<DataArray type="Float64" Name="abs_term_u" format="ascii">
1.08769
1.08726
1.08711
1.0855
1.08761
1.08768
1.0879
1.08579
1.08678
1.08289
1.08659
1.08454
1.0875
1.0833
1.07981
1.08754
1.0883
1.08482
1.08627
1.07926
1.07466
1.0691
1.08145
1.08611
1.08352
1.08759
1.08852
1.06261
1.07531
1.06984
1.08176
1.07778
1.06341
1.05605
1.04778
1.08863
1.08825
1.08722
1.08347
1.08507
1.07718
1.07212
1.06609
1.07958
1.08173
1.08531
1.0874
1.08847
1.05522
1.04695
1.02799
1.03786
1.05919
0.75664
1.0728
1.06687
1.07976
1.07577
1.03863
1.05997
1.04338
1.05208
1.08862
1.08773
1.08694
1.08497
1.08219
0.757416
0.752551
1.07445
1.06955
1.06369
1.07708
1.07947
1.08281
1.08476
1.0875
1.0868
1.08792
1.01739
1.00612
0.99424
1.05133
1.04294
1.02296
1.03342
1.05596
0.767872
0.795188
0.754295
0.752321
0.748419
1.07102
1.06392
1.07642
1.02865
1.01793
1.03391
1.05696
1.03973
1.04888
1.00649
0.994386
0.981714
0.968512
1.08741
1.08569
1.08708
1.0852
1.08107
1.07568
0.8994
0.833276
0.754312
0.751092
0.763202
0.794516
0.981795
1.06999
1.06129
1.07464
1.07992
1.08311
1.08188
1.08469
1.08562
1.01201
1.00057
0.988339
1.07649
1.04764
1.03847
1.01743
1.02783
1.05428
1.06862
1.05321
0.864314
0.827195
0.766774
0.789923
0.745088
0.750572
0.741965
0.933928
0.89857
0.968809
0.955497
1.06902
1.062
1.07453
1.02327
1.0123
1.02916
1.05392
1.03704
1.0452
1.00072
0.988497
0.954837
0.975334
0.961914
0.940804
0.926582
0.912233
1.04376
1.06301
0.998694
1.02468
1.08523
1.08469
1.08188
1.08347
1.07984
1.0807
1.07502
0.966812
0.926887
0.881255
0.835383
0.747993
0.746473
0.760918
0.792058
0.975549
1.0605
1.0671
1.07236
1.07704
1.0804
1.07984
1.08133
0.983066
1.00666
0.995137
1.07273
1.04508
1.03285
1.01751
1.05338
1.06188
1.04502
1.02891
0.968011
0.997973
0.860515
0.820751
0.784295
0.762502
0.735047
0.732413
0.743309
0.933851
0.896104
0.899957
0.959995
0.947561
0.941783
0.9139
0.927878
0.886081
0.89785
0.883571
1.06491
1.07231
1.00743
1.01782
1.02638
1.05373
1.04242
0.99614
0.983231
0.948249
0.968975
0.955655
0.934014
0.9197
0.904611
1.05495
1.04475
1.06383
0.998168
1.0237
1.08126
1.07981
1.07684
1.07699
1.07192
0.964163
0.924012
0.878044
0.738769
0.828551
0.738507
0.754084
0.78517
0.966254
0.975442
1.06316
1.06929
1.07359
1.07586
1.0758
0.997307
1.06751
1.04424
1.03406
1.02065
1.05234
1.05549
1.03747
1.02163
0.96523
0.992294
0.85541