<VTKFile type="UnstructuredGrid" version="0.1" byte_order="LittleEndian">
<UnstructuredGrid>
<Piece NumberOfPoints="3209" NumberOfCells="6126">
<PointData Scalars="abs_term_u">
<DataArray type="Float64" Name="real_part_term_u" format="ascii">
-1.30319
-1.31718
-1.28519
-1.29462
-1.31074
-1.32712
-1.31717
-1.32274
-1.2745
-1.23694
-1.26304
-1.28302
-1.30093
-1.20664
-1.17236
-1.33304
-1.33073
-1.29919
-1.31525
-1.32689
-1.26611
-1.22163
-1.24814
-1.2775
-1.28038
-1.19238
-1.15399
-1.13407
-1.33453
-1.33497
-1.33366
-1.33479
-1.29675
-1.31204
-1.32441
-1.33208
-1.25007
-1.21889
-1.29106
-1.25736
-1.27769
-1.26116
-1.17315
-1.13392
-1.11368
-1.09164
-1.04552
-1.33453
-1.33284
-1.32674
-1.31664
-1.33365
-1.33454
-1.3065
-1.33245
-1.31986
-1.32868
-1.29316
-1.22691
-1.19209
-1.27296
-1.23541
-1.24903
-1.26592
-1.15356
-1.09862
-1.11132
-1.06594
-0.995263
-1.02197
-0.941696
-1.33018
-1.32199
-1.30246
-1.31116
-1.3306
-1.33091
-1.32839
-1.24599
-1.27496
-1.31181
-1.32774
-1.3225
-1.32335
-1.29746
-1.20043
-1.17002
-1.24559
-1.20875
-1.21457
-1.23459
-1.21112
-1.21445
-1.1648
-1.13318
-1.06489
-1.08203
-1.02648
-0.884331
-0.97665
-0.913772
-1.28435
-1.32108
-1.29294
-1.3068
-1.32364
-1.32368
-1.32011
-1.24713
-1.27351
-1.20595
-1.10028
-1.14716
-1.31221
-1.319
-1.31422
-1.2927
-1.16308
-1.21239
-1.17539
-1.18017
-1.20004
-0.95628
-1.18113
-1.17424
-1.04058
-1.11747
-1.10284
-1.04572
-0.985842
-1.01845
-0.82366
-0.760056
-0.854713
-0.934946
-0.884823
-0.693455
-1.23579
-1.26207
-1.27229
-1.31038
-1.27696
-1.29283
-1.31305
-1.31242
-1.01002
-0.892979
-1.30836
-1.26298
-1.23831
-1.18996
-1.06704
-1.11639
-1.30453
-1.30017
-1.27849
-0.743236
-1.12467
-1.1724
-1.13822
-1.14572
-1.15606
-0.845729
-0.970013
-1.12676
-1.05705
-1.01518
-1.05847
-0.971207
-0.953607
-0.79219
-0.72715
-0.822629
-0.890856
-0.659263
-0.55292
-0.624246
1.00851
1.15393
-1.20545
-1.21883
-1.24747
-1.25776
-1.29588
-1.2727
-1.29898
-1.29838
-1.17101
-1.1327
-0.96042
-0.819996
-0.562324
-0.347976
-0.656541
-0.10652
0.661459
0.407022
0.146784
-1.29254
-1.24979
-1.21863
-1.15257
-1.01934
-1.07247
-1.28511
-1.28412
-1.25712
-1.09027
0.929319
0.790932
1.06694
1.06564
0.91843
0.494502
0.23662
-0.66024
-0.467221
-0.00968651
-0.248038
-0.740329
-1.0869
-1.12283
-1.10121
-1.10057
-0.883359
-0.985563
-1.05754
-0.479662
-0.404779
-1.02574
-0.989402
-0.925806
-0.892776
-0.693999
-0.755872
-0.82338
-0.631907
-0.517144
-0.588996
0.870165
0.755525
1.14857
1.06279
1.21384
-1.18813
-1.20133
-1.22727
-1.23983
-1.27877
-1.25173
-1.28231
-1.28123
-1.15164
-1.11226
-0.895638
-0.738939
-0.446249
-0.215568
-0.562777
0.0457424
0.563384
0.31573
-1.27569
-1.22102
-1.10634
-1.16786
-0.963056
-1.02939
-1.26321
-1.26318
-1.22675
-1.04393
-1.06661
-1.08801
-0.993866
0.779572
0.572508
0.981449
0.952681
0.820524
0.868926
0.775188
0.315088
0.0735382
-0.568638
-0.374326
-0.15769
-0.648277
-0.791317
-1.04877
-1.06354
-1.06258
-1.03776
-0.904639
-0.98567
-0.991511
-0.442405
-0.328813
-0.366512
-0.25231
-0.175522
-0.957974
-0.48221
-0.908916
-0.864091
-0.809608
-0.681495
-0.742385
-0.614141
-0.54885
0.920972
0.720454
1.19321
1.08826
1.24486
-1.17258
-1.20124
-1.21896
-1.25985
-1.23156
-1.26295
-1.26162
-1.12582
-0.815933
-0.648429
-0.0602462
-0.346079
-0.493892
0.214406
0.473915
-1.25355
-1.17915
-1.09823
-0.895336
-0.998095
-1.23351
-1.2365
-1.18717
-1.01797
-1.04787
-1.07838
-0.940033
-0.967758
-0.0984943
-0.136734
0.602221
0.384628
0.851889
0.719683
0.673917
0.754299
0.611047
0.14441
-0.590327
-0.0782642
-0.475532
-0.280625
-0.702048
-0.81782
-1.00202
-0.988587
-1.0095
-0.964251
-0.905166
-0.924578
-0.404047
-0.291348
-0.330179
-0.213913
-0.880001
-0.46529
-0.830154
-0.794644
-0.730876
-0.647007
-0.545099
-0.909707
0.91594
0.651618
1.20714
1.09932
1.24516
-1.15534
-1.17883
-1.19709
-1.20962
-1.23373
-1.23718
-1.24305
-1.10866
-0.712438
0.0938979
-0.54137
-0.128925
-0.355696
0.334412
-1.22272
-0.775863
-1.12164
-1.03313
-0.922389
-1.19652
-1.1361
-0.882822
-0.822268
-1.06346
-0.996935
-1.03141
-0.910718
-0.951639
-0.758482
-0.0219417
0.127715
0.0535626
0.20057
0.34026
0.271537
-0.0598128
-0.163126
-0.0953961
0.423735
0.209627
0.695199
0.607956
0.57248
0.522277
0.368249
0.587516
0.434114
-0.0100018
-0.613605
-0.489864
-0.224475
-0.36515
-0.731811
-0.81837
-0.937382
-0.948692
-0.936482
-0.882012
-0.876038
-0.857049
-0.355626
-0.25805
-0.796089
-0.45025
-0.733994
-0.640123
-0.548244
-0.847485
0.965187
0.788866
0.537527
1.06959
1.19939
1.21682
-1.13224
-1.15546
-1.17663
-1.20166
-1.20234
-1.21075
-1.04511
-1.08548
-0.607682
0.0613991
-0.409333
-0.190552
0.248481
-1.18098
-0.673859
-0.831106
-1.0624
-0.961137
-1.1388
-1.07724
-0.845256
-0.790816
-1.01509
-0.866968
-0.968676
-0.909811
-0.692066
-0.731457
-0.623085
-0.551817
0.40664
0.0158062
0.165004
0.0898683
0.373819
0.236227
0.306289
-0.163775
-0.0250464
-0.0880873
0.246829
0.0398266
0.531579
0.462935
0.39189
0.274175
0.222172
0.0909149
0.25622
0.410019
-0.172376
-0.653953
-0.545107
-0.376999
-0.737105
-0.791983
-0.887747
-0.864302
-0.828373
-0.768425
-0.350328
-0.256359
-0.700733
-0.443455
-0.622127
-0.535235
-0.791385
-0.737342
0.89269
0.669661
0.412061
0.975717
1.13564
1.15591
-1.10556
-1.13145
-1.15048
-1.16068
-1.17093
-1.17228
-1.01023
-1.04771
-0.492835
-0.0339537
-0.282157
0.116905
-1.13185
-0.567144
-0.732755
-0.874574
-0.989193
-1.08285
-1.01086
-0.79444
-0.957602
-0.847598
-0.90226
-0.658585
-0.698744
-0.587801
-0.478596
-0.515554
-0.40395
0.470414
0.531345
0.438213
0.789792
0.589365
0.0561142
0.204725
0.136221
0.408401
0.344086
0.271728
-0.080114
-0.150243
0.00579863
0.0824212
-0.111995
0.364609
0.300564
0.2232
0.136653
0.02986
-0.0197372
0.106649
0.213891
-0.301522
-0.665858
-0.58682
-0.468395
-0.710407
-0.740591
-0.814579
-0.766856
-0.740394
-0.665588
-0.352663
-0.258017
-0.596237
-0.433856
-0.511876
-0.701556
-0.629668
0.767918
0.528214
0.268321
0.989551
0.844604
1.07035
1.06627
-1.082
-1.118
-1.11336
-1.1303
-1.13121
-0.979598
-0.92582
-1.01544
-0.377071
-0.143099
-0.477091
-0.000232649
-1.08112
-0.627148
-0.7799
-0.911444
-1.01901
-0.939771
-0.768525
-0.884206
-0.829988
-0.694135
-0.637325
-0.620223
-0.544307
-0.441298
-0.479773
-0.328156
-0.366301
-0.251626
-0.174884
0.127693
0.906803
0.831959
0.870907
0.500651
0.56092
0.469691
0.744375
0.695881
0.644243
0.769108
0.812023
0.618227
0.113229
0.218465
0.414825
0.321964
-0.154738
-0.0320127
0.0839376
-0.0637599
-0.233363
-0.0487929
0.185828
0.138327
0.0734541
0.00119018
-0.057707
-0.102132
-0.154053
0.0393983
-0.387361
-0.613737
-0.508885
-0.660658
-0.587423
-0.664628
-0.707798
-0.654103
-0.636546
-0.542383
-0.275338
-0.154432
-0.461692
-0.353036
-0.580019
-0.527333
-0.170653
0.621172
0.38763
0.134187
0.682871
0.905116
0.977242
0.953822
-0.867847
-1.05371
-1.07844
-1.05936
-1.08289
-1.08848
-0.936566
-0.983778
-0.289057
-0.508485
-0.117414
-1.01992
-1.00108
-0.679249
-0.827257
-0.943848
-0.866432
-0.752715
-0.811927
-0.687053
-0.630676
-0.572279
-0.488427
-0.407953
-0.290073
-0.329839
-0.212711
-0.0981012
0.0533914
-0.0218831
-0.136243
0.0910186
0.200474
0.163575
0.271056
0.339653
0.939739
0.969742
0.99689
0.923727
0.889387
0.853049
0.536877
0.589189
0.503293
0.725272
0.671945
0.755836
0.788322
0.825062
0.642059
0.46415
0.185735
0.28939
0.385845
0.155938
-0.0514532
0.0694217
-0.180109
-0.317341
-0.141048
0.0273113
-0.0081617
-0.0564494
-0.105619
-0.167753
-0.132712
-0.0971588
-0.427589
-0.516559
-0.590653
-0.520784
-0.566347
-0.575956
-0.505245
-0.510469
-0.077824
-0.429108
-0.211379
-0.326755
-0.441855
-0.187274
0.47899
0.247543
0.00547984
0.734551
0.560787
0.830396
0.860522
0.821533
-0.790012
-0.850849
-1.01747
-1.03631
-1.03252
-1.04173
-0.90714
-0.951174
-0.35799
-0.56228
-0.226359
-0.978852
-0.93074
-0.744
-0.855574
0.642741
-0.712737
-0.622621
-0.564876
-0.497966
-0.414594
-0.33366
-0.253859
-0.170278
-0.0591845
0.0172708
-0.0998189
-0.699086
0.0546514
0.121955
0.229825
0.183969
0.58801
0.530154
0.469497
0.405919
0.306064
0.373661
0.968081
0.995329
0.788125
0.694389
0.742788
0.938054
0.905095
0.830208
0.869185
1.12562
1.1172
1.10678
1.09424
1.07951
1.06251
1.02136
1.0432
0.955133
0.983358
1.00925
0.939225
0.909722
0.870371
0.586164
0.542512
0.51041
0.713935
0.780402
0.839929
0.665277
0.449974
0.250234
0.359516
0.188399
0.0492906
-0.261259
-0.355936
-0.217196
-0.104648
-0.129582
-0.16185
-0.183735
-0.197842
-0.419855
-0.443263
-0.497838
-0.428749
-0.446611
-0.422789
-0.367588
-0.0936227
0.027524
-0.310242
-0.189798
-0.295634
-0.227436
-0.110975
0.338338
0.113264
0.636034
0.422939
0.729865
0.730349
0.676226
0.521824
-0.765542
-0.827389
-0.97773
-0.98931
-0.991457
-0.877874
-0.911885
-0.933875
-0.43453
-0.606954
-0.318459
-0.906795
-0.847448
-0.74826
0.669428
0.622641
-0.614726
-0.522877
-0.415838
-0.333064
-0.273545
-0.1945
-0.100885
-0.0178148
-0.678351
-0.602237
0.0718048
0.16025
0.244556
0.565398
0.504849
0.439399
0.341056
0.40626
1.09312
1.01985
1.0783
1.0612
1.04176
0.982077
0.953446
1.00789
0.807645
0.766142
0.719319
0.923129
0.887715
0.849669
1.13207
1.13662
1.13928
1.14009
1.13907
1.10577
1.13623
1.13155
1.11636
1.12494
1.12858
1.1212
1.09992
1.11128
1.08678
1.09072
1.071
1.05303
1.03275
1.02034
0.965525
0.995477
0.939204
0.893784
0.615364
0.572223
0.525434
0.735268
0.797315
0.849358
0.687477
0.450731
0.324936
0.293899
0.170628
-0.30082
-0.349313
-0.263815
-0.200398
-0.216646
-0.231547
-0.248613
-0.36521
-0.349954
-0.377987
-0.310369
-0.295419
-0.262435
-0.214157
0.152696
-0.0180865
-0.158639
-0.137558
-0.264171
-0.210861
-0.0094206
0.202193
0.588789
0.269794
0.465585
0.607581
0.566861
0.419778
0.365714
-0.74007
-0.798326
-0.657927
-0.930221
-0.936879
-0.843055
-0.872901
-0.867985
-0.879215
-0.496203
-0.642708
-0.38873
-0.829459
-0.753133
0.666066
0.603903
-0.512875
-0.418636
-0.32576
-0.232624
-0.123376
-0.00771539
-0.590866
-0.506444
0.112001
0.212507
0.189756
0.309333
0.552128
0.475405
0.399594
1.0993
1.08568
1.03104
1.06977
1.05153
1.07735
0.994297
0.96624
0.940553
1.01756
0.829708
0.779943
0.728547
0.912368
0.873107
1.13404
1.13763
1.13935
1.13925
1.13736
1.11087
1.13368
1.12803
1.12046
1.10463
1.12964
1.12335
1.11469
1.10134
1.07747
1.08453
1.06177
1.04199
1.01341
0.975387
0.934853
0.895551
0.641259
0.593648
0.558502
0.756584
0.817208
0.860564
0.709026
0.511073
0.406646
0.376705
0.282308
-0.29763
-0.294779
-0.266226
-0.251384
-0.263367
-0.253003
-0.266501
-0.22185
-0.168856
-0.207127
-0.134833
-0.109599
-0.0827917
0.28214
0.143824
0.000349586
0.0120728
-0.269857
-0.288314
-0.119631
0.0693601
0.132055
0.470849
0.311626
0.459163
0.397565
0.315055
0.277952
0.218584
-0.763109
-0.686104
-0.58623
-0.808554
-0.866287
-0.812759
-0.817944
-0.817276
-0.537174
-0.654961
-0.43345
-0.743908
-0.726395
0.683727
0.612494
-0.233933
-0.418442
-0.326084
0.0624611
-0.138469
-0.0376551
-0.152142
-0.49822
-0.409652
0.175944
0.272001
0.379937
0.547601
0.469475
1.09285
1.03997
1.06005
1.08113
1.06841
1.00276
0.980315
0.944795
1.02327
0.853014
0.806999
0.753918
0.902462
0.934348
1.13412
1.13676
1.13763
1.13703
1.13389
1.11348
1.12901
1.12232
1.10342
1.12812
1.12288
1.11653
1.10692
1.09207
1.0733
1.06263
1.03396
1.00089
0.928885
0.965105
0.895496
0.648428
0.603962
0.778692
0.842286
0.730242
0.5628
0.480208
0.399986
0.407732
-0.251421
-0.20022
-0.230511
-0.254891
-0.224705
-0.121205
-0.0945271
-0.0337673
-0.0171684
0.0192891
0.0285522
0.281356
0.144882
0.157208
-0.218682
-0.204923
-0.335387
-0.0603436
0.0327649
0.164248
0.319661
0.29364
0.239544
0.193014
0.139744
-0.0250562
0.08656
-0.660048
-0.578432
-0.488242
-0.759968
-0.768442
-0.762116
-0.555329
-0.645256
-0.456377
-0.694476
-0.685095
-0.629541
0.726386
0.669886
0.613965
-0.222958
-0.32365
0.0653429
-0.0462201
-0.118106
0.176757
-0.391808
-0.297597
0.272029
0.365312
0.457012
0.543113
1.08942
1.04932
1.06966
0.997244
0.967256
1.02343
0.868793
0.832026
0.784351
0.901
0.926446
0.951841
1.13169
1.13367
1.13336
1.12794
1.11366
1.11991
1.09879
1.12161
1.1176
1.11028
1.09405
1.08014
1.06555
1.04993
1.02047
0.986681
0.940318
0.888912
0.683906
0.638855
0.793665
0.84344
0.748217
0.579283
0.503117
0.418121
0.505895
-0.169405
-0.0749315
-0.166866
-0.179889
0.0141911
0.0421511
0.107917
0.150928
0.166158
0.30423
0.269135
-0.0990755
-0.220891
-0.354761
-0.106007
0.138924
0.0270962
0.162166
-0.0887058
0.0989445
-0.108999
0.0470827
-0.0750564
0.0118742
-0.16154
-0.551378
-0.489162
-0.395532
-0.706028
-0.682844
-0.55308
-0.614095
-0.460919
-0.637391
-0.597362
-0.521076
0.761973
0.696599
0.620972
-0.182987
-0.0853864
0.0774464
-0.0166598
0.270389
0.180932
-0.289685
-0.210794
0.358077
0.44515
0.533563
0.354515
1.08044
1.04379
1.05875
1.00081
0.977255
1.01657
0.865609
0.819445
0.900147
0.934396
0.962509
1.12106
1.12612
1.12802
1.12325
1.11585
1.10617
1.10747
1.08838
1.11286
1.10321
1.09097
1.07215
1.04836
1.02944
1.00341
0.966381
0.876357
0.922144
0.708962
0.658952
0.799136
0.835146
0.760066
0.598864
0.448361
0.51267
0.576602
0.0719737
-0.056257
-0.0334072
0.155964
0.214199
0.269476
0.316235
0.391734
0.0755752
-0.262011
-0.373955
-0.191857
-0.138789
0.0203727
-0.00496415
-0.0281986
-0.0564404
-0.143899
-0.0943192
-0.176451
-0.177966
-0.423754
-0.28262
-0.623325
-0.577552
-0.53029
-0.562042
-0.448836
-0.558455
-0.494454
-0.401132
0.799915
0.735597
0.667731
0.595505
-0.106206
0.00534464
0.0957872
0.277528
0.196722
-0.154767
0.435755
0.514484
0.41573
0.358165
1.06696
1.03299
1.04324
0.981703
1.00285
0.857969
0.903235
0.944241
1.11533
1.10987
1.11313
1.10578
1.09739
1.09275
1.07017
1.09185
1.07852
1.06335
1.04168
1.01503
0.975979
0.936753
0.844526
0.892815
0.71597
0.673563
0.796753
0.746442
0.63795
0.517311
0.488249
0.558991
0.600446
0.241928
0.14119
0.316847
0.375291
0.411423
0.465671
0.273255
-0.373685
-0.301103
-0.244573
-0.211971
-0.10765
-0.132337
-0.162112
-0.189713
-0.194745
-0.28766
-0.160846
-0.516558
-0.452165
-0.484036
-0.48692
-0.409282
-0.454835
-0.372543
-0.27315
-0.338065
0.82121
0.76953
0.709912
0.645546
0.576726
-0.00482602
0.150558
0.303541
-0.0253552
0.48568
0.566698
0.429077
1.04669
1.01329
1.02255
0.966404
0.980088
0.900751
0.865921
0.92712
1.09553
1.08792
1.07817
1.06814
1.04088
1.06069
1.05477
1.04319
1.025
1.0007
0.96942
0.933245
0.799446
0.892798
0.848086
0.696193
0.7341
0.634251
0.510924
0.534262
0.554937
0.568927
0.394042
0.354129
0.459114
0.478828
0.495943
0.511567
0.444077
-0.345472
-0.313662
-0.271725
-0.249638
-0.205541
-0.219434
-0.23578
-0.23335
-0.159876
-0.0372193
-0.3738
-0.408282
-0.414853
-0.342908
-0.30121
-0.331465
-0.244374
-0.165449
-0.231471
0.834738
0.791258
0.743186
0.688113
0.624877
0.115752
0.256521
0.387051
0.0917525
0.532236
0.603908
0.491825
1.01219
0.986012
0.939561
0.940656
0.893079
0.866237
0.896892
1.05278
1.06089
1.03977
0.995907
1.02172
1.02718
1.01786
0.995602
1.01423
0.975729
0.740628
0.944046
0.910423
0.876971
0.782687
0.833295
0.657292
0.666158
0.574588
0.509988
0.504382
0.494954
0.482416
0.498278
0.522754
0.516055
0.509117
0.482449
0.538234
-0.290362
-0.261003
-0.252951
-0.252411
-0.266222
-0.26775
-0.0517201
0.0771227
-0.226691
-0.312245
-0.260853
-0.246597
-0.203034
-0.0922143
-0.0909731
0.80361
0.834678
0.766549
0.721544
0.670344
0.219616
0.341436
0.451088
0.196848
0.575312
0.629221
0.540275
0.964549
0.927027
0.895047
0.882037
0.8604
0.847614
1.00275
1.01057
0.942587
0.992056
0.957756
0.960604
0.975658
0.952872
0.93926
0.940468
0.898898
0.673606
0.866996
0.825276
0.749217
0.568356
0.548389
0.459843
0.444951
0.40735
0.383281
0.349097
0.539124
0.510125
0.444029
0.372927
0.516196
-0.226577
-0.227641
-0.223955
-0.255572
-0.270949
0.0641976
0.18594
-0.0820704
-0.180744
-0.156093
-0.146281
-0.063783
0.0508081
0.0514838
0.797159
0.812152
0.753533
0.720427
0.671606
0.310881
0.413076
0.501259
0.29103
0.614673
0.569801
0.89814
0.852821
0.830121
0.801889
0.803321
0.777293
0.936079
0.87354
0.905912
0.89168
0.852866
0.836191
0.871606
0.831358
0.804534
0.510732
0.624271
0.760572
0.719244
0.425377
0.378976
0.296688
0.30633
0.254837
0.244837
0.16286
0.458869
0.392566
0.294881
0.203019
0.365347
-0.165566
-0.181544
-0.217543
0.180483
0.283824
0.0645161
-0.0473535
-0.0393247
-0.0339232
0.074204
0.182477
0.190066
0.768116
0.762111
0.725094
0.706239
0.660574
0.3934
0.466067
0.528619
0.384716
0.617094
0.580256
0.808119
0.756728
0.745305
0.696725
0.720891
0.676492
0.743085
0.829685
0.79252
0.767358
0.728148
0.765334
0.749291
0.675976
0.67912
0.315457
0.45075
0.599416
0.172129
0.237101
0.0785885
0.109736
0.0523862
-0.0775054
0.24449
0.111619
-0.0159629
0.109347
-0.0558562
-0.0969689
0.292384
0.376649
0.0752548
0.19733
0.0897232
0.0951258
0.189483
0.309466
0.312441
0.703634
0.713699
0.667328
0.679007
0.63916
0.651297
0.477843
0.548021
0.450446
0.604974
0.573709
0.688263
0.638597
0.631935
0.576878
0.602703
0.562953
0.60383
0.657679
0.69938
0.523187
0.586046
0.590753
0.610675
0.479132
0.092258
0.481531
0.228127
0.364168
-0.0217524
0.0151856
-0.174515
-0.122772
-0.225323
-0.324713
-0.0374199
-0.163861
-0.264014
-0.201891
0.079345
0.4164
0.199873
0.194049
0.317788
0.247678
0.416672
0.414125
0.401388
0.640669
0.595536
0.632213
0.605328
0.555994
0.516555
0.544479
0.497728
0.568314
0.531065
0.54563
0.483777
0.501764
0.448016
0.463342
0.43317
0.441293
0.377781
0.521972
0.348217
0.434876
-0.141261
0.37712
0.257596
-0.0129249
0.256312
0.12549
-0.242755
-0.412226
-0.369697
-0.458132
-0.528603
-0.331914
-0.406587
-0.495035
-0.497808
0.275059
0.487536
0.34755
0.398908
0.485868
0.475265
0.533752
0.517066
0.557132
0.437416
0.522762
0.506574
0.510797
0.479074
0.451799
-0.374203
0.337903
0.325116
0.335854
0.309818
0.310092
0.257514
0.207949
0.306656
0.106714
0.197509
-0.251415
0.139882
0.0550947
-0.119717
0.010013
0.0970199
-0.487821
-0.583123
-0.571578
-0.626909
-0.654469
-0.573465
-0.593812
-0.661966
-0.701665
0.445504
0.509373
0.492444
0.515679
0.515686
0.427859
0.452082
0.299727
0.355814
0.487821
0.444009
0.478578
0.353774
0.350806
-0.555446
-0.463309
0.136388
0.145179
0.144601
0.168315
0.150319
0.0449596
0.0396368
-0.108981
-0.0638459
-0.355526
-0.123496
-0.24082
-0.298944
-0.0846627
-0.123613
-0.626501
-0.668832
-0.696838
-0.700144
-0.681699
-0.729383
-0.736507
-0.756108
0.536885
0.487736
0.537923
0.51448
0.29668
0.156691
0.228055
0.390426
0.399005
0.223666
0.230903
-0.657545
-0.618111
-0.548846
-0.0607486
-0.0490231
-0.036624
-0.0076679
-0.178435
-0.238516
-0.327823
-0.461383
-0.377181
-0.484696
-0.263273
-0.287827
-0.33577
-0.668922
-0.648014
-0.708955
-0.655717
-0.587535
-0.726874
-0.671204
-0.632993
0.513769
0.422994
0.466109
-0.0373457
0.0832491
0.0371029
0.256748
0.291177
0.0490462
0.071359
-0.678402
-0.655632
-0.671487
-0.626891
-0.249652
-0.234037
-0.220622
-0.211573
-0.399524
-0.466544
-0.543098
-0.58625
-0.616815
-0.429057
-0.407046
-0.456078
-0.523756
-0.597381
-0.507801
-0.589735
-0.482441
-0.370068
-0.493844
-0.553269
-0.344178
0.363956
0.290581
-0.159161
-0.166893
0.0946853
0.148953
-0.144036
-0.0879446
-0.682125
-0.630993
-0.539316
-0.700745
-0.689065
-0.687932
-0.417017
-0.404938
-0.395333
-0.38909
-0.588813
-0.638082
-0.681837
-0.698927
-0.562156
-0.566678
-0.614325
-0.66194
-0.411329
-0.260411
-0.180567
-0.333494
-0.0860188
-0.220031
0.0510973
0.106888
6.38482e-05
-0.379148
-0.361906
-0.145349
-0.307097
-0.605737
-0.519604
-0.318685
-0.658026
-0.724135
-0.554572
-0.549068
-0.546184
-0.546163
-0.708164
-0.730929
-0.737491
-0.648797
-0.659868
-0.677247
-0.702204
-0.726779
-0.133953
0.0582868
0.0876688
0.00270829
0.243712
0.252703
0.467833
-0.0253352
-0.204824
-0.34271
-0.543064
-0.524089
-0.486503
-0.533096
-0.400304
-0.22886
-0.640361
-0.441022
-0.69916
-0.64494
-0.645176
-0.6513
-0.660037
-0.738438
-0.730167
-0.667984
-0.672284
-0.686211
-0.701916
-0.709665
-0.699978
0.188735
0.390766
0.389887
0.570294
0.640224
0.812363
0.0686026
0.280557
-0.499137
-0.601967
-0.664239
-0.648133
-0.297785
-0.134991
-0.558758
-0.378649
-0.209169
-0.627738
-0.673032
-0.685601
-0.701032
-0.716601
-0.658529
-0.614311
-0.608723
-0.604495
-0.616107
-0.630164
-0.643824
0.491387
0.672664
0.750428
0.823005
0.911043
1.00072
0.152954
0.34777
0.541668
-0.70187
-0.736971
-0.733488
-0.0117343
-0.0382664
-0.446184
-0.200138
-0.494601
-0.631886
-0.7041
-0.655824
-0.680634
-0.489387
-0.486954
-0.472221
-0.469552
-0.481592
-0.478383
-0.492712
0.710307
0.841014
0.938122
0.914849
1.00419
0.981641
0.252785
0.395528
0.552654
0.69067
-0.751752
-0.713415
0.161399
0.0421376
-0.287488
-0.0506791
-0.336098
-0.510791
-0.596026
-0.545204
-0.269504
-0.282078
-0.264998
-0.257797
-0.262153
-0.286116
-0.275545
0.791024
0.854938
0.939633
0.888473
0.749238
0.336739
0.427836
0.536821
0.627755
0.685075
-0.626183
-0.497027
0.255423
0.175999
0.106571
-0.107033
-0.0110551
-0.303173
-0.371572
-0.044875
-0.0386952
-0.0162157
-0.000183505
-0.000701742
-0.017167
-0.0402481
0.697192
0.651547
0.740497
0.569459
0.346616
0.391824
0.446504
0.502328
0.543573
0.551966
0.518063
-0.336644
-0.158347
0.344169
0.303763
0.182233
0.182835
0.0133167
0.194705
0.274849
0.286669
0.279931
0.255897
0.223265
0.441367
0.383449
0.328001
0.110047
-0.143338
0.422024
0.437215
0.444727
0.442575
0.411278
0.333507
0.217416
0.252954
0.0593735
0.40995
0.406865
0.357047
0.357957
0.37721
0.438458
0.417787
0.550259
0.543247
0.51505
0.467907
0.0688045
-0.0518495
-0.124667
-0.385683
-0.616673
0.415703
0.399416
0.367858
0.316331
0.278207
0.166651
0.0192247
-0.171715
0.624094
0.475578
0.431033
0.447333
0.52652
0.473752
0.471685
0.781456
0.591152
0.771468
0.729714
0.663402
0.372764
-0.357256
-0.536769
-0.789728
-0.969292
0.336504
0.288361
0.21365
0.108211
0.0250673
-0.142877
-0.348061
-0.561743
0.867653
0.818034
0.597565
0.415987
0.519054
0.422049
0.970126
0.926767
0.687787
0.865821
0.780985
0.275552
0.241193
-0.789353
-0.933631
-1.06081
-1.12496
0.192447
0.120415
0.0174116
-0.113102
-0.247347
-0.444212
-0.653012
-0.842483
1.00887
0.584464
0.508202
0.303858
0.369842
0.972073
1.00284
0.903635
0.687905
0.798981
0.122539
0.102775
0.0749372
-0.983403
-1.07107
-1.10029
-1.04606
0.0246198
-0.0578057
-0.167441
-0.304018
-0.462793
-0.634114
-0.786098
-0.9098
0.981798
0.465384
0.362233
0.147399
0.177533
0.837908
0.870965
0.712922
0.583793
-0.0795696
-0.0719854
-0.066495
-0.0805339
-0.974163
-1.00511
-0.909039
-0.749055
-0.121356
-0.193435
-0.293119
-0.412969
-0.539228
-0.652686
-0.736166
-0.759134
0.7445
0.25409
0.148184
0.0715607
-0.0817898
0.564435
0.553551
0.381904
-0.0263639
-0.311355
-0.264928
-0.219611
-0.186981
-0.179363
-0.758414
-0.528039
-0.297024
-0.201512
-0.251742
-0.322431
-0.400657
-0.470075
-0.514052
-0.519784
-0.454237
0.339637
-0.125662
-0.181209
-0.364575
0.185265
0.0714851
-0.343368
-0.405719
-0.537519
-0.454063
-0.364152
-0.28363
-0.225452
-0.196058
-0.288635
-0.0426178
0.213242
-0.195036
-0.21563
-0.245814
-0.270216
-0.272942
-0.243841
-0.16445
-0.0130328
-0.151736
-0.475867
-0.605683
-0.37031
-0.631031
-0.659185
-0.666009
-0.726964
-0.608684
-0.477633
-0.353935
-0.250614
-0.17533
-0.129067
0.209925
0.451125
0.672103
-0.105976
-0.0947906
-0.0822828
-0.0500392
0.00857423
0.099276
0.2283
0.42878
-0.625136
-0.798317
-0.799067
-0.879655
-0.877789
-0.854413
-0.701103
-0.536327
-0.378647
-0.242079
-0.133042
-0.0546056
-0.000699799
0.645564
0.840042
0.982529
0.038644
0.077225
0.774733
0.130576
0.205932
0.308812
0.436662
0.610363
-0.975898
-0.971612
-1.06037
-1.04285
-0.875442
-0.70347
-0.518293
-0.340156
-0.184088
-0.059893
0.0328397
1.08118
0.0987068
0.148676
0.930367
1.04544
0.194777
0.251999
0.938318
0.841289
0.328912
0.43072
0.555261
0.697079
-1.12808
-1.01528
-1.10266
-0.78375
-0.601565
-0.410491
-0.228504
0.954106
-0.0713296
0.0520764
0.138924
0.196479
1.02616
0.23597
0.270664
1.01505
0.31307
0.374693
0.908292
0.809446
0.458911
0.566418
0.688029
-1.04573
-0.898149
-0.596756
-0.430331
-0.217904
-0.0450767
0.0976037
0.795699
0.642939
0.201319
0.265624
0.296202
0.306117
0.848133
0.310447
0.321755
0.821334
0.351127
0.404306
0.752551
0.671076
0.48055
0.574178
-0.745498
-0.521514
-0.25362
-0.00489542
0.191443
0.311073
0.382066
0.582146
0.384976
0.194568
0.408497
0.397518
0.363951
0.323714
0.523832
0.289978
0.276041
0.5293
0.286766
0.326805
0.504054
0.447069
0.378532
-0.0884121
-0.290174
-0.0321051
0.228854
0.426757
0.543444
0.58016
0.557457
0.201052
0.0440355
0.496117
0.410172
0.317727
0.232587
0.0725891
0.237313
0.167682
0.133064
0.21975
0.12594
0.135409
0.213662
0.174934
-0.263472
-0.194004
0.219604
0.458634
0.648984
0.758456
0.782151
0.696772
0.580848
-0.0997196
0.440215
0.293764
0.159164
-0.121851
0.0473523
-0.0381052
-0.0345937
-0.0792506
-0.0691739
-0.0992333
-0.107873
-0.0981202
-0.338214
-0.313407
-0.263262
0.674956
0.841061
0.930082
0.929283
0.793342
0.633871
0.447394
-0.24195
0.253858
0.0722748
-0.0756536
-0.222591
-0.191969
-0.224389
-0.276794
-0.306671
-0.240866
-0.292253
-0.262113
-0.334247
-0.343791
-0.335667
-0.323192
-0.278531
-0.196539
0.980175
1.04135
1.01401
0.920669
0.851058
0.643528
0.418487
0.193007
-0.315237
-0.0137837
-0.201987
-0.319366
-0.314819
-0.369792
-0.324361
-0.381296
-0.379284
-0.341026
-0.360992
-0.310271
-0.334087
-0.337228
-0.33867
-0.230679
-0.151153
-0.109579
-0.0328019
0.0251796
0.0605876
0.0747554
0.0717883
0.0568023
1.07448
-0.0414592
1.0208
0.8973
0.773336
0.573882
0.350337
0.0977364
-0.117095
-0.341636
-0.258295
-0.342699
-0.397161
-0.349365
-0.416832
-0.362046
-0.414736
-0.400178
-0.380359
-0.277002
-0.299628
-0.307731
-0.314632
-0.209428
-0.147457
-0.0682512
0.00478206
0.0485703
0.0713938
0.0756192
0.0652294
0.047757
0.0351365
0.0116959
-0.0375797
-0.0398269
-0.0267053
-0.00978837
8.07434e-05
0.944274
-0.0413515
0.787895
0.629604
0.415373
0.183881
-0.0093143
-0.156029
-0.277597
-0.322664
-0.356229
-0.398942
-0.414998
-0.335356
-0.41131
-0.353173
-0.395445
-0.37395
-0.229698
-0.243122
-0.252775
-0.261979
-0.151587
-0.0771773
-0.0101982
0.0397646
0.0679331
0.0781581
0.0721008
0.0578887
0.0420762
0.0251746
0.00962394
-0.0341752
-0.0402712
-0.0286303
-0.0201702
-0.00986794
0.630037
-0.042022
0.379252
0.184347
0.0526168
-0.0893117
-0.209405
-0.29815
-0.356607
-0.271635
-0.385136
-0.390319
-0.379984
-0.288914
-0.359819
-0.311202
-0.33587
-0.163419
-0.174088
-0.183455
-0.192773
-0.0856295
-0.0169835
0.0343971
0.0662681
0.0800194
0.0787767
-0.0414469
0.0667065
0.0490507
0.0272881
0.00837641
-0.00699829
-0.03532
-0.0229154
0.185602
-0.0429742
0.0321578
-0.118088
-0.174244
-0.259462
-0.317952
-0.351926
-0.362679
-0.203185
-0.354248
-0.33363
-0.306821
-0.225907
-0.278257
-0.250765
-0.0937106
-0.101449
-0.109256
-0.117041
-0.0231958
0.0313585
0.0669499
0.0838738
0.0847402
0.0749385
-0.0429495
-0.0398446
0.0586374
0.0383954
0.0164307
-0.00298898
-0.0190002
-0.0317441
-0.0937235
-0.0444629
-0.197011
-0.253167
-0.275808
-0.299784
-0.332852
-0.343308
-0.335856
-0.313819
-0.13265
-0.282375
-0.247785
-0.213742
-0.155187
-0.182291
-0.0279736
-0.0325042
-0.0372926
-0.0465581
0.0298104
0.0686998
0.0887356
0.0921995
0.0835898
0.0670264
-0.0441803
-0.0387016
0.046514
0.0242949
0.00309669
-0.0148648
-0.028797
-0.265573
-0.0462152
-0.0465821
-0.314163
-0.323228
-0.33789
-0.337811
-0.32935
-0.306219
-0.272116
-0.231539
-0.0638828
-0.18961
-0.150157
-0.115535
-0.0864455
0.0288787
0.0276755
0.0237967
0.0132971
0.0712555
0.0943401
0.100498
0.0929815
0.0762791
0.0550988
-0.0439772
-0.0375001
0.0321211
0.00968753
-0.00996969
-0.0260487
-0.338142
-0.0481631
-0.0480475
-0.342737
-0.335621
-0.326742
-0.310264
-0.274073
-0.230935
-0.183995
-0.136392
-0.00279844
-0.0930196
-0.0554538
-0.0254989
0.0735186
0.0741869
0.0707224
0.0617984
0.100046
0.108681
0.102866
0.0867659
0.0648288
0.0404629
-0.0443908
-0.0356346
0.0167684
-0.0045959
-0.0224686
-0.33327
-0.0504025
-0.0499943
-0.308872
-0.288572
-0.285759
-0.239552
-0.190256
-0.140099
-0.0905519
-0.0450055
0.0468289
-0.00598728
0.0244271
0.104599
0.106534
0.104391
0.0967934
0.116411
0.112544
0.097327
0.0749819
0.0495571
0.0245583
-0.0437529
-0.0332642
0.00125599
-0.0182452
-0.277338
-0.052477
-0.0495468
-0.052666
-0.25115
-0.230485
-0.196811
-0.149564
-0.100059
-0.0517173
-0.00720688
0.0314314
0.0827547
0.0621889
0.122587
0.125938
0.125012
0.118756
0.121584
0.107393
0.0847129
0.0591216
0.0328027
0.00794691
-0.0420264
-0.0301194
-0.0132854
-0.195501
-0.054474
-0.0492663
-0.0538933
-0.191783
-0.152493
-0.108928
-0.0635829
-0.0196898
0.00534445
0.0218716
0.057183
0.0856681
0.10624
0.128927
0.133677
0.133878
0.129303
0.116206
0.0946278
0.0684869
0.0414924
0.0156383
-0.00794644
-0.0400017
-0.0265884
-0.0479801
-0.133458
-0.107907
-0.0565043
-0.0552071
-0.106341
-0.0654716
-0.0301037
0.0297887
0.0410665
0.0488409
0.0740131
0.0994636
0.117782
0.123942
0.131701
0.133247
0.130447
0.1027
0.0778858
0.0508271
0.0241963
-0.0529107
-0.0001621
-0.0471785
-0.0227132
-0.0379114
-0.0654819
-0.0316782
-0.0581196
-0.0572705
-0.0269389
0.0154994
0.0555478
0.0714847
0.0822565
0.104659
0.120073
0.103427
0.116719
0.105993
0.12331
0.125628
0.124299
0.0861659
0.0601036
0.0329883
0.00741997
-0.0535307
-0.0136859
-0.0468558
-0.0285509
-0.0380982
0.00115152
0.025537
-0.0593505
-0.0583604
0.0346746
0.0611084
0.0798457
0.0954105
0.105693
0.115783
0.10731
0.0942651
0.112182
0.109789
0.113141
0.0667089
0.0396713
0.0149531
-0.00811931
-0.0531991
-0.0265033
-0.0410152
0.0492844
0.0607323
-0.0602527
-0.0590915
-0.0558151
0.0701023
0.0717408
0.0822408
0.0910936
0.0974323
0.0986609
0.106558
0.0859672
0.0980928
0.0971885
0.0918846
0.0467036
0.0210652
-0.00160592
-0.0214934
-0.0492493
-0.0379116
0.0721359
0.0747668
-0.060701
-0.0546972
-0.0593412
0.0548974
0.0820828
0.0789186
0.085615
0.0874519
0.0873332
0.0882309
0.0653817
0.0795868
0.0732382
0.0282911
0.00476711
-0.0158417
-0.0330453
-0.0468417
0.0757582
0.0749033
0.0716505
-0.0607519
-0.0533111
-0.0587259
0.0369631
0.0778742
0.0754964
0.072985
0.069288
0.0626847
0.0464172
0.0550998
0.0116503
-0.010372
-0.0298619
-0.0456088
0.0667597
0.0650544
0.0564554
-0.0602551
-0.0549429
-0.0589043
0.0201761
0.0622974
0.0579888
0.0525968
0.0459204
0.0378755
0.0292369
-0.00354832
-0.0233478
-0.0391259
-0.0504475
0.0475209
0.0475441
0.0348293
-0.0593656
-0.0571313
0.00481474
0.0433856
0.0368531
0.0297228
0.0217609
0.0133096
-0.0529936
-0.0162767
-0.0332491
-0.0456066
0.0335412
0.0294125
0.0251009
0.01145
-0.0581406
-0.055887
-0.00899302
0.0235747