<VTKFile type="UnstructuredGrid" version="0.1" byte_order="LittleEndian">
<UnstructuredGrid>
<Piece NumberOfPoints="13245" NumberOfCells="25718">
<PointData Scalars="abs_term_u">
<DataArray type="Float64" Name="real_part_term_u" format="ascii">
-0.103336
-0.125122
-0.148257
-0.0830028
-0.091339
-0.0643045
-0.112551
-0.0968665
-0.136062
-0.124884
-0.158221
-0.172593
-0.0720288
-0.0800057
-0.0472355
-0.0549127
-0.0319331
-0.113121
-0.0934887
-0.137637
-0.169562
-0.18447
-0.224331
-0.198084
-0.25151
-0.0579851
-0.0677105
-0.0386057
-0.0452674
-0.0387876
-0.0185091
-0.0242857
-0.00708899
-0.0767377
-0.102197
-0.120409
-0.144642
-0.167731
-0.189158
-0.238753
-0.212638
-0.27936
-0.265831
-0.307639
-0.0585231
-0.0517669
-0.0462928
-0.0322931
-0.0283773
-0.0258017
-0.0124458
-0.0170095
-0.001352
0.00238194
-0.0839259
-0.108404
-0.132708
-0.163146
-0.188762
-0.211667
-0.255885
-0.234099
-0.292785
-0.275334
-0.33626
-0.365054
-0.320214
-0.0648796
-0.0397634
-0.034613
-0.0291039
-0.0182723
-0.0132209
-0.00634707
0.00977955
0.00140419
0.00703566
-0.0950763
-0.0673097
-0.393874
-0.127844
-0.157879
-0.184906
-0.209589
-0.235894
-0.265103
-0.299028
-0.350238
-0.378978
-0.334511
-0.04127
-0.0212237
-0.0162949
-0.011987
-0.00720792
-0.00223345
0.00247335
0.0135829
0.0151465
0.0099402
0.014489
0.0166151
-0.0685093
-0.0431763
-0.122704
-0.0923494
-0.422614
-0.407234
-0.450971
-0.479015
-0.154122
-0.185641
-0.207851
-0.234599
-0.393783
-0.26338
-0.294727
-0.32078
-0.36694
-0.34242
-0.506468
-0.533258
-0.559263
-0.00568566
-0.0111446
0.00269014
0.00646245
0.0086287
0.0109364
0.0135546
0.0703463
0.0315363
0.0168568
0.0183079
0.0178971
0.0193714
0.0205182
0.0440684
-0.149971
0.00439974
-0.0338574
-0.0734013
-0.11682
0.0849356
-0.436447
-0.414179
-0.465898
-0.493039
-0.183777
-0.2196
-0.259024
-0.398401
-0.290146
-0.327479
-0.362508
-0.584372
-0.608498
-0.520086
-0.546385
-0.572099
0.110879
0.130097
0.0223352
0.0204038
0.0284006
0.0275787
0.0274336
0.0274959
0.0280334
0.0942515
0.0569345
0.0284371
0.020065
0.019405
0.0183252
0.0225467
0.02839
0.0277975
0.0151327
-0.63153
-0.653433
-0.67415
0.251374
0.199773
0.0568124
0.0161356
-0.179235
-0.143108
-0.0234538
-0.0638745
-0.104133
0.150063
0.102261
0.0740615
-0.455393
-0.435144
-0.479057
-0.506976
-0.213731
-0.250117
-0.285686
-0.425089
-0.390505
-0.319967
-0.355351
-0.596726
-0.620139
-0.535403
-0.563264
-0.584829
0.396389
0.340749
0.177445
0.225924
0.304903
0.275133
0.133472
0.155407
0.0480439
0.0466495
0.0481723
0.0466071
0.0441461
0.0424682
0.0406935
0.147344
0.116046
0.080687
0.0383
0.0224031
0.0199271
0.017635
0.0265528
0.0354666
0.0317085
0.00975125
0.0134475
0.00231582
-0.693577
-0.642615
-0.663315
-0.681987
0.710288
0.442085
0.681251
0.65387
0.276241
0.221502
0.168563
0.296315
0.337313
0.38193
0.0334561
-0.0110995
-0.208887
-0.173516
-0.134411
-0.0524479
-0.0938978
0.110786
0.0582261
-0.45992
-0.492892
-0.524176
-0.244352
-0.279724
-0.315211
-0.449648
-0.417705
-0.383962
-0.350094
-0.605983
-0.631029
-0.553539
-0.585658
0.693161
0.710521
0.724799
0.620142
0.582896
0.54328
0.500873
0.664731
0.696028
0.358576
0.455414
0.406143
0.202491
0.249373
0.321013
0.290161
0.178835
0.0689041
0.0635826
0.0596837
0.064413
0.056047
0.0518609
0.171093
0.136723
0.102489
0.0466525
0.0221058
0.0175842
0.0289372
0.0390528
0.00668312
0.0123773
-0.0186022
-0.00716085
-0.00144721
-0.0319897
-0.711714
-0.702532
-0.653406
-0.670376
-0.687474
0.695456
0.695029
0.663683
0.426985
0.486177
0.638852
0.603691
0.56636
0.526835
0.13817
0.244021
0.191086
0.277269
0.31983
0.36691
0.404633
-0.23886
0.00679569
-0.0391494
-0.204817
-0.165749
-0.124617
-0.0835068
0.0265683
0.0811588
-0.481454
-0.512582
-0.543369
-0.343429
-0.273931
-0.310103
-0.471325
-0.412267
-0.445367
-0.37208
-0.385384
-0.61698
-0.643017
-0.573324
-0.601801
-0.561347
0.722211
0.737243
0.512913
0.633798
0.596987
0.556606
0.674617
0.710474
0.361617
0.411272
0.452424
0.467423
0.52404
0.228806
0.273649
0.329961
0.210311
0.0899514
0.0743199
0.0817284
0.0682668
0.0620502
0.190665
0.155511
0.121543
0.0538818
0.0224199
0.013761
0.0314477
0.0443034
0.00491141
-0.0246566
-0.0119185
-0.00690765
-0.0472834
-0.037264
-0.728655
-0.744255
-0.758567
-0.771623
-0.783436
-0.721261
-0.717279
-0.706343
-0.669122
-0.693235
0.679903
0.680115
0.646589
0.620732
0.462411
0.586807
0.547957
0.503808
0.161086
0.109805
0.211647
0.256651
0.30501
0.356214
0.406578
-0.266324
-0.236594
-0.0233914
-0.00564925
-0.0718641
-0.198564
-0.156657
-0.114057
0.0397511
-0.0129569
-0.501389
-0.531518
-0.342945
-0.303904
-0.481107
-0.427856
-0.460056
-0.380404
-0.407452
-0.655901
-0.629388
-0.590036
-0.617232
-0.550319
-0.576817
0.73574
0.747064
0.567044
0.645512
0.608828
0.687455
0.721529
0.571658
0.386002
0.438113
0.487101
0.526954
0.254795
0.303297
0.357212
0.234805
0.107224
0.0841699
0.0956466
0.0803002
0.0709662
0.212387
0.172007
0.138119
0.0601927
0.021334
0.0114477
0.0326646
0.0478142
0.00287038
-0.0227959
-0.0121714
-0.0830436
-0.0643369
-0.0541774
-0.0399891
-0.736887
-0.751835
-0.764942
-0.776866
-0.794066
-0.788068
-0.731563
-0.714183
-0.72473
-0.680273
-0.702222
0.663585
0.662943
0.661738
0.630567
0.649779
0.604321
0.570033
0.449645
0.529243
0.489243
0.153687
0.0792449
0.193905
0.239077
0.28929
0.34116
0.388546
-0.274078
-0.236566
-0.0535694
-0.105448
-0.192042
-0.150525
-0.0449942
0.00854561
-0.521169
-0.346862
-0.314192
-0.489709
-0.39305
-0.454938
-0.426951
-0.667388
-0.643018
-0.605906
-0.631093
-0.560013
-0.594306
0.744479
0.754089
0.617809
0.655995
0.696239
0.728051
0.608959
0.57522
0.524577
0.412079
0.475266
0.28018
0.328674
0.380873
0.25857
0.121676
0.102171
0.088313
0.080123
0.226575
0.187606
0.152636
0.0669933
0.0167902
0.0332357
0.0511496
-0.103373
0.000291268
-0.030181
-0.0185475
-0.0453852
-0.0918956
-0.0728547
-0.0602154
-0.803569
-0.811988
-0.746468
-0.759544
-0.770496
-0.780344
-0.798612
-0.793526
-0.742074
-0.721891
-0.736583
-0.690112
-0.711342
0.626681
0.637576
0.618759
0.614
0.618656
0.648894
0.633775
0.594482
0.634485
0.552412
0.510214
0.429174
0.465383
0.124138
0.0549123
0.173546
0.221045
0.270006
0.322204
0.367485
-0.276926
-0.236267
-0.0951297
-0.143496
-0.190184
-0.0368726
-0.0834356
-0.00859419
-0.527716
-0.357855
-0.321777
-0.497291
-0.402648
-0.43509
-0.466808
-0.678113
-0.65672
-0.565253
-0.645319
-0.620541
-0.594283
0.613169
0.749739
0.757762
0.657001
0.731795
0.70081
0.622702
0.589193
0.546795
0.492603
0.437028
0.300826
0.349899
0.403994
0.267419
0.0905107
0.132841
0.107854
0.232398
0.200923
0.164768
0.0973157
0.0744647
0.0156402
0.0336751
0.0568099
-0.172627
-0.125188
-0.148297
-0.112004
-0.0550627
-0.00503024
-0.024339
-0.0392878
-0.0997649
-0.0806265
-0.0728021
-0.198099
-0.819405
-0.815813
-0.807922
-0.758637
-0.77228
-0.786644
-0.803258
-0.797969
-0.754232
-0.728125
-0.740463
-0.75226
-0.699941
-0.72425
0.621225
0.60763
0.609893
0.601479
0.616552
0.581514
0.536911
0.599742
0.491445
0.441976
0.384777
0.104712
0.0343688
0.148594
0.197387
0.248342
0.308377
-0.284359
-0.24027
-0.136312
-0.191592
-0.124557
-0.0756595
-0.0338286
-0.535401
-0.368807
-0.333117
-0.50548
-0.41273
-0.44333
-0.474734
-0.673292
-0.571566
-0.59844
-0.649717
-0.625022
0.602903
0.751495
0.757893
0.666045
0.731532
0.702854
0.626691
0.575085
0.514975
0.459483
0.319589
0.369225
0.423992
0.29385
0.252072
0.115839
0.116262
0.140972
0.213959
0.175602
-0.185103
0.0879973
0.0129221
0.0350608
0.0609816
-0.160144
-0.13556
-0.117901
-0.0571826
-0.0144357
-0.0409839
-0.0961379
-0.0787474
-0.224509
-0.279399
-0.251625
-0.211061
-0.825885
-0.822882
-0.8199
-0.831478
-0.813309
-0.768294
-0.781279
-0.792778
-0.807682
-0.802889
-0.764214
-0.74173
-0.757913
-0.70016
-0.739778
-0.720712
0.583343
0.590729
0.588944
0.566826
0.563224
0.520737
0.47257
0.548898
0.420999
0.363984
0.296037
0.0762628
0.0124165
0.120313
0.172411
0.231688
-0.293746
-0.0124073
-0.244488
-0.188349
-0.147874
-0.101825
-0.0556361
-0.542809
-0.379004
-0.345313
-0.512627
-0.417195
-0.448003
-0.480843
-0.577787
-0.678115
-0.604607
-0.630115
-0.654681
0.573001
0.74976
0.754574
0.725576
0.664885
0.699325
0.621603
0.57971
0.533582
0.479298
0.332726
0.384324
0.440735
0.310253
0.270194
0.227852
0.118506
0.144463
0.184809
-0.171917
-0.194186
0.089484
0.0112635
0.0368657
0.0622905
-0.147406
-0.122716
-0.0150227
-0.0607513
-0.039184
-0.103279
-0.0826507
-0.307745
-0.292303
-0.239254
-0.265973
-0.222952
-0.393997
-0.821378
-0.82891
-0.825776
-0.836278
-0.834024
-0.840359
-0.81625
-0.777086
-0.788103
-0.798527
-0.81176
-0.807533
-0.774338
-0.756861
-0.772025
-0.754806
-0.701623
-0.720704
-0.73843
0.53303
0.555615
0.518026
0.502555
0.453245
0.400641
0.486769
0.343087
0.280554
0.216642
0.0343993
0.0897859
0.150204
-0.303963
-0.0476194
-0.259977
-0.216318
-0.170184
-0.115739
-0.551071
-0.394783
-0.363858
-0.519575
-0.445528
-0.486286
-0.585838
-0.609903
-0.681057
-0.634154
-0.658313
-0.616134
0.524101
0.743005
0.747504
0.714984
0.691774
0.659323
0.609117
0.551505
0.496875
0.461213
0.723096
0.698167
0.346241
0.399837
0.292151
0.239227
0.194216
0.120138
0.152984
-0.173139
-0.200837
0.0881133
0.0109085
0.0357047
0.0615429
-0.150042
-0.129132
-0.017014
-0.0422185
-0.0619686
-0.106423
-0.085494
-0.336398
-0.365092
-0.320753
-0.2821
-0.302068
-0.259139
-0.230559
-0.37898
-0.422678
-0.405992
-0.451141
-0.823511
-0.82778
-0.832145
-0.838428
-0.836429
-0.843785
-0.84211
-0.846636
-0.825687
-0.819375
-0.789864
-0.803396
-0.815629
-0.811913
-0.785828
-0.769759
-0.782862
-0.704071
-0.765841
-0.751593
-0.721536
-0.738955
0.473509
0.494252
0.462499
0.433867
0.377118
0.319848
0.416699
0.260089
0.195083
0.128794
0.00551914
0.0635914
-0.324364
-0.0752937
-0.130302
-0.281287
-0.237384
-0.186829
-0.559547
-0.385902
-0.415796
-0.459864
-0.526941
-0.4924
-0.597931
-0.637022
-0.685166
-0.662051
-0.636369
0.457512
0.735223
0.737018
0.678286
0.650409
0.611782
0.569707
0.505183
0.435425
0.712679
0.667961
0.680023
0.338795
0.376547
0.295506
0.249957
0.201583
0.116416
0.15682
0.11004
-0.177691
-0.205448
0.0754642
0.00721216
0.0364201
-0.15552
-0.133266
-0.019881
-0.045923
-0.0744765
-0.107977
-0.351291
-0.323693
-0.291511
-0.233763
-0.261344
-0.378472
-0.402891
-0.436644
-0.423098
-0.479157
-0.465229
-0.82947
-0.833283
-0.848979
-0.836991
-0.840558
-0.845246
-0.843614
-0.847811
-0.83079
-0.827536
-0.822578
-0.798093
-0.808213
-0.818877
-0.816164
-0.794748
-0.79078
-0.781335
-0.77524
-0.708135
-0.724494
-0.75865
-0.74148
0.406827
0.409708
0.354297
0.29015
0.239568
0.336549
0.173766
0.105511
0.0378288
-0.0340779
-0.107567
-0.347741
-0.148649
-0.203731
-0.302864
-0.256358
-0.569654
-0.41289
-0.453305
-0.503169
-0.538673
-0.61286
-0.66628
-0.688579
-0.644957
-0.672528
0.375156
-0.506623
-0.533365
0.708069
0.725298
0.724748
0.636669
0.403638
0.584768
0.530015
0.464268
0.686561
0.643134
0.6535
0.355089
0.317773
0.260691
0.207072
0.154045
0.119209
0.364178
0.0773084
-0.211216
-0.185376
0.0368255
-0.00232644
-0.164
-0.137322
-0.0414503
-0.0762035
-0.107705
-0.353602
-0.323566
-0.292348
-0.234081
-0.26295
-0.388074
-0.421964
-0.451251
-0.49365
-0.480208
-0.834165
-0.837603
-0.849917
-0.850879
-0.840861
-0.843823
-0.846534
-0.848773
-0.852381
-0.853537
-0.834877
-0.831445
-0.826703
-0.804344
-0.812994
-0.822864
-0.819661
-0.792166
-0.800405
-0.709255
-0.787669
-0.774338
-0.726691
-0.742851
-0.759272
0.328273
0.329146
0.266132
0.148104
0.193738
0.245076
0.0848226
0.0555259
0.0141979
-0.0547829
-0.108004
-0.165831
-0.367604
-0.223672
-0.278475
-0.324818
-0.586065
-0.429387
-0.471557
-0.513493
-0.552491
-0.634355
-0.699857
-0.677515
-0.697556
0.278748
-0.523726
-0.546618
-0.55947
0.689931
0.710873
0.710556
0.598566
0.418177
0.543752
0.482306
0.66038
0.608053
0.617444
0.317084
0.266512
0.214606
0.165659
0.0801649
0.123908
0.3222
0.370376
0.0381521
-0.201309
-0.000845757
-0.0320196
-0.171658
-0.141792
-0.0697476
-0.108481
-0.355599
-0.23491
-0.324137
-0.292289
-0.262329
-0.386661
-0.417597
-0.448579
-0.481156
-0.506974
-0.837829
-0.84085
-0.850296
-0.851562
-0.843761
-0.846372
-0.848526
-0.854405
-0.854993
-0.855336
-0.855448
-0.852876
-0.854396
-0.854988
-0.855334
-0.853873
-0.837572
-0.835316
-0.831655
-0.827955
-0.810119
-0.816771
-0.824721
-0.821841
-0.799259
-0.808048
-0.798666
-0.727342
-0.788205
-0.775838
-0.745531
-0.761462
0.230416
0.170973
0.109434
0.144895
0.0265383
-0.00584698
-0.02941
-0.0782182
-0.152869
-0.234641
-0.387682
-0.299677
-0.350993
-0.446563
-0.601588
-0.486998
-0.527543
-0.566256
-0.645544
-0.677337
-0.725366
-0.705193
0.171364
-0.584495
-0.631667
-0.608606
-0.653591
-0.529706
-0.546796
-0.571071
-0.674284
-0.693749
0.660568
0.687407
0.695936
0.695177
0.679575
0.664091
0.555337
0.429881
0.495856
0.379781
0.622717
0.565445
0.573973
0.272958
0.221304
0.168933
0.0385272
0.0852339
0.128111
0.278532
0.321414
-0.00365257
-0.208068
-0.0461697
-0.0781482
-0.176087
-0.141771
-0.107019
-0.355264
-0.245756
-0.324085
-0.290644
-0.385469
-0.415636
-0.445656
-0.476008
-0.505442
-0.533004
-0.853556
-0.85241
-0.843054
-0.840297
-0.849768
-0.851702
-0.845721
-0.848004
-0.853965
-0.854589
-0.855054
-0.855272
-0.855271
-0.85309
-0.854588
-0.85503
-0.853919
-0.838055
-0.834428
-0.831181
-0.828084
-0.815543
-0.821371
-0.82498
-0.807225
-0.813984
-0.799187
-0.806909
-0.749345
-0.789253
-0.778535
-0.765796
-0.799672
0.113574
0.055878
0.051371
-0.0398021
-0.0974158
-0.114163
-0.170686
-0.245443
-0.315432
-0.43165
-0.374494
-0.497403
-0.614227
-0.541921
-0.579809
-0.503611
-0.658083
-0.685567
-0.75436
-0.712284
-0.735517
0.0557917
-0.812107
-0.711865
-0.728773
-0.744371
-0.771732
-0.758705
-0.803682
-0.783556
-0.794197
-0.597419
-0.644021
-0.622074
-0.66351
-0.559906
-0.592817
-0.683045
-0.701549
0.625596
0.66699
0.681207
0.665276
0.650364
0.650022
0.506959
0.430194
0.35399
0.580295
0.516844
0.525856
0.227847
0.164338
-0.00343906
0.0459363
0.0979441
0.294681
0.245354
-0.0466585
-0.0468417
-0.211624
-0.0895414
-0.176049
-0.1379
-0.386395
-0.356617
-0.248743
-0.287545
-0.324802
-0.444113
-0.415272
-0.4723
-0.50142
-0.529982
-0.558054
-0.850911
-0.852979
-0.85156
-0.849022
-0.844121
-0.841537
-0.848806
-0.850304
-0.851888
-0.846839
-0.852598
-0.853769
-0.854429
-0.854704
-0.854777
-0.854652
-0.853103
-0.854211
-0.835671
-0.838816
-0.832677
-0.829732
-0.826957
-0.818993
-0.821777
-0.824222
-0.81289
-0.817249
-0.807544
-0.812222
-0.770858
-0.791128
-0.78402
-0.800987
-0.806025
-0.80999
-0.00213947
-0.0483828
-0.129891
-0.188868
-0.206823
-0.260331
-0.329769
-0.393158
-0.448366
-0.554476
-0.62786
-0.595801
-0.516046
-0.564427
-0.672756
-0.696762
-0.776774
-0.721232
-0.761363
-0.74287
-0.0648988
-0.819508
-0.825969
-0.831557
-0.816344
-0.808597
-0.752084
-0.720819
-0.736992
-0.745263
-0.778026
-0.765763
-0.799264
-0.789622
-0.654575
-0.617282
-0.636086
-0.670247
-0.586109
-0.613118
-0.686284
-0.70144
-0.7146
0.583405
0.626876
0.653813
0.640682
0.630153
0.637593
0.634341
0.627221
0.449952
0.377759
0.306377
0.532482
0.534154
0.463124
0.473504
0.178199
0.118035
0.00127239
0.0561271
0.242011
0.185436
-0.0441187
-0.0916085
-0.0907496
-0.211895
-0.135982
-0.176498
-0.412244
-0.247804
-0.367199
-0.285845
-0.324625
-0.473024
-0.444698
-0.499194
-0.526221
-0.552849
-0.579998
-0.849949
-0.85163
-0.850502
-0.836353
-0.846692
-0.843852
-0.840426
-0.834106
-0.847867
-0.851441
-0.83244
-0.844121
-0.841638
-0.848457
-0.850108
-0.851523
-0.846044
-0.852547
-0.853361
-0.853703
-0.853817
-0.853736
-0.853411
-0.85266
-0.835286
-0.83809
-0.829605
-0.82692
-0.824269
-0.819757
-0.820373
-0.822148
-0.815924
-0.817797
-0.813004
-0.81504
-0.789256
-0.798993
-0.807721
-0.812311
-0.79411
-0.148522
-0.116215
-0.226985
-0.279068
-0.295093
-0.348015
-0.412903
-0.46749
-0.611785
-0.64565
-0.530508
-0.574533
-0.624471
-0.706544
-0.694474
-0.729719
-0.782654
-0.751434
-0.768562
-0.187365
-0.823494
-0.829112
-0.820502
-0.804641
-0.81356
-0.758393
-0.749199
-0.731767
-0.784801
-0.773607
-0.795552
-0.658086
-0.638695
-0.676383
-0.606645
-0.633409
-0.696541
-0.717834
0.614512
0.619609
0.578401
0.616547
0.609251
0.610325
0.623392
0.60851
0.615184
0.392373
0.319886
0.248959
0.480542
0.485793
0.522896
0.405446
0.416716
0.12486
0.0633287
0.00606851
0.180375
0.130916
-0.0378422
-0.0852986
-0.137146
-0.138753
-0.216431
-0.179372
-0.251654
-0.442819
-0.402059
-0.283389
-0.361383
-0.321918
-0.499721
-0.480556
-0.474363
-0.526009
-0.54619
-0.571028
-0.600393
-0.848892
-0.849956
-0.838314
-0.845305
-0.84219
-0.831846
-0.835491
-0.846515
-0.849865
-0.850983
-0.827771
-0.830477
-0.842873
-0.840726
-0.847618
-0.8491
-0.850395
-0.844436
-0.841858
-0.851768
-0.852214
-0.852328
-0.852207
-0.852206
-0.851505
-0.833203
-0.835853
-0.825103
-0.819688
-0.822314
-0.818103
-0.817556
-0.815927
-0.815543
-0.814678
-0.803058
-0.813425
-0.809163
-0.812437
0.613727
-0.798638
-0.806054
-0.237728
-0.310657
-0.365921
-0.381247
-0.433026
-0.493496
-0.6722
-0.54863
-0.585037
-0.63455
-0.677364
-0.717534
-0.734734
-0.760007
-0.789365
-0.777371
-0.802344
-0.308039
-0.827159
-0.821472
-0.806022
-0.814992
-0.763449
-0.754518
-0.739024
-0.786296
-0.776373
-0.797311
-0.660093
-0.687034
-0.627741
-0.650592
-0.709751
-0.730553
0.608268
0.609928
0.567017
0.573428
0.577958
0.592022
0.590396
0.503863
0.332381
0.258143
0.184166
0.427353
0.452502
0.344344
0.356856
0.0689996
0.00138369
0.0692093
0.106636
-0.0697456
-0.131211
-0.184022
-0.186003
-0.23201
-0.277882
-0.436399
-0.397059
-0.317546
-0.357752
-0.519302
-0.511205
-0.470923
-0.506659
-0.554223
-0.591096
-0.621163
-0.84761
-0.848301
-0.848258
-0.840607
-0.843682
-0.833293
-0.838252
-0.844996
-0.849712
-0.849023
-0.822276
-0.824173
-0.826595
-0.838807
-0.845746
-0.847145
-0.848449
-0.840815
-0.850063
-0.850171
-0.849975
-0.849882
-0.829337
-0.831908
-0.818725
-0.812827
-0.81547
-0.813565
-0.809615
-0.813522
-0.810205
-0.811923
-0.81031
-0.810688
-0.812604
-0.812815
0.603377
-0.808818
-0.812188
-0.40137
-0.362097
-0.451641
-0.468721
-0.524114
-0.712902
-0.599058
-0.647251
-0.689793
-0.725478
-0.746488
-0.768752
-0.78609
-0.801139
-0.810813
-0.423411
-0.827877
-0.821844
-0.807267
-0.815344
-0.767896
-0.761251
-0.748454
-0.788458
-0.779737
-0.79928
-0.676872
-0.665398
-0.699198
-0.652213
-0.720521
-0.741307
0.588904
0.519619
0.561474
0.529804
0.539622
0.550438
0.454896
0.269309
0.192837
0.113895
0.369027
0.383382
0.280308
0.292082
0.0136225
-0.0499712
0.0253043
0.0338362
-0.118619
-0.17879
-0.234298
-0.232947
-0.272386
-0.311022
-0.431621
-0.39259
-0.353108
-0.546298
-0.466948
-0.539161
-0.503586
-0.536139
-0.579257
-0.611921
-0.642684
-0.847151
-0.847129
-0.846116
-0.846438
-0.832527
-0.841419
-0.836965
-0.843439
-0.846364
-0.815376
-0.818002
-0.820957
-0.834485
-0.842661
-0.844174
-0.845523
-0.836721
-0.847374
-0.847024
-0.846488
-0.823648
-0.826308
-0.804554
-0.808263
-0.805984
-0.80615
-0.797802
-0.807825
-0.802151
-0.805605
-0.809407
-0.803491
-0.813292
-0.811877
0.57333
-0.813871
-0.813727
-0.477255
-0.538572
-0.533203
-0.609738
-0.754755
-0.661906
-0.703465
-0.73747
-0.764874
-0.777167
-0.792932
-0.806646
-0.813668
-0.815586
-0.53019
-0.827516
-0.822071
-0.809138
-0.816606
-0.771436
-0.760671
-0.791044
-0.782654
-0.802239
-0.681406
-0.709281
-0.670785
-0.73118
-0.751499
0.546421
0.468668
0.518762
0.481428
0.493863
0.0509492
0.397901
0.201234
0.124873
0.305786
0.319994
0.211051
0.223366
-0.0438626
-0.108323
-0.0350461
-0.0224544
-0.172344
-0.232039
-0.287471
-0.286609
-0.350174
-0.426304
-0.387295
-0.461127
-0.572018
-0.50223
-0.565663
-0.537459
-0.561738
-0.603388
-0.633193
-0.661321
-0.843578
-0.843246
-0.844907
-0.84411
-0.843514
-0.831723
-0.835919
-0.839782
-0.841335
-0.842528
-0.80639
-0.796271
-0.807723
-0.810403
-0.813533
-0.828753
-0.841614
-0.838481
-0.8402
-0.831022
-0.836927
-0.843468
-0.842666
-0.816444
-0.819159
-0.794962
-0.795857
-0.784523
-0.793559
-0.782865
-0.798648
-0.789546
-0.795534
-0.794077
-0.805079
-0.81119
0.524581
-0.813474
-0.807838
-0.582952
-0.619722
-0.6765
-0.785993
-0.718461
-0.749153
-0.774659
-0.794379
-0.801703
-0.812295
-0.817368
-0.817423
-0.81349
-0.813375
-0.625215
-0.82737
-0.821965
-0.813482
-0.777725
-0.769484
-0.792181
-0.8055
-0.69748
-0.721403
-0.687696
-0.742283
-0.760736
0.488235
0.412914
0.445967
0.42918
0.0651948
-0.00177428
0.335234
0.118352
0.250726
0.237771
0.138713
0.152365
-0.102343
-0.166904
-0.0917998
-0.0767048
-0.230723
-0.289642
-0.345524
-0.338864
-0.381223
-0.418326
-0.45496
-0.49636
-0.59689
-0.537506
-0.589307
-0.575984
-0.62545
-0.651705
-0.679049
-0.839724
-0.838946
-0.838536
-0.841553
-0.841463
-0.840137
-0.834444
-0.831316
-0.837827
-0.839009
-0.838067
-0.796381
-0.784778
-0.781488
-0.797826
-0.800662
-0.804094
-0.821565
-0.835279
-0.833091
-0.831858
-0.823915
-0.832624
-0.837289
-0.807287
-0.810631
-0.778451
-0.768806
-0.7779
-0.763778
-0.784878
-0.772264
-0.780958
-0.777853
-0.792501
-0.802789
0.457947
-0.807032
-0.800646
-0.665283
-0.689793
-0.732763
-0.80891
-0.763544
-0.783293
-0.798558
-0.815073
-0.817825
-0.821052
-0.818969
-0.813179
-0.803982
-0.802939
-0.705345
-0.826815
-0.821086
-0.815027
-0.784776
-0.776998
-0.798162
-0.808796
-0.712084
-0.734122
-0.703286
-0.75428
-0.768953
0.416021
0.376583
0.352947
0.374184
0.0270894
-0.0575402
0.268317
0.0535322
0.180777
0.167925
0.0682752
0.0854644
-0.158251
-0.22374
-0.146457
-0.134069
-0.286037
-0.348741
-0.402368
-0.445625
-0.402795
-0.485265
-0.531152
-0.623152
-0.570942
-0.615725
-0.608745
-0.657883
-0.688724
-0.834032
-0.833334
-0.833178
-0.83731
-0.838253
-0.836704
-0.83432
-0.830746
-0.836374
-0.836003
-0.832704
-0.760417
-0.780426
-0.76767
-0.785176
-0.788654
-0.792664
-0.812812
-0.826861
-0.82632
-0.814766
-0.828518
-0.796854
-0.801625
-0.768224
-0.753405
-0.734402
-0.746865
-0.758085
-0.741102
-0.766298
-0.749821
-0.759803
-0.754585
-0.7743
-0.790286
0.375428
-0.791363
-0.73982
-0.777793
-0.822815
-0.799111
-0.816289
-0.82759
-0.824304
-0.820104
-0.81195
-0.801166
-0.786937
-0.784321
-0.768131
-0.826497
-0.821711
-0.816683
-0.790479
-0.782398
-0.802018
-0.81155
-0.806771
-0.726202
-0.747462
-0.716732
-0.768747
0.329419
0.306923
0.288253
-0.0317693
-0.114675
0.198627
0.132418
-0.0167944
0.0973052
0.00157057
0.0240606
-0.215118
-0.280404
-0.205178
-0.193483
-0.342353
-0.401986
-0.458701
-0.456221
-0.525652
-0.567146
-0.650944
-0.607106
-0.643813
-0.636036
-0.680457
-0.707303
-0.827769
-0.827909
-0.826852
-0.83232
-0.833974
-0.829575
-0.833493
-0.832284
-0.827285
-0.742435
-0.752343
-0.770207
-0.773959
-0.778554
-0.801398
-0.817048
-0.818391
-0.803654
-0.819605
-0.785349
-0.749957
-0.712906
-0.727368
-0.704993
-0.719476
-0.730526
-0.70715
-0.740774
-0.720561
-0.73171
-0.724499
-0.748791
-0.770672
0.279155
-0.765156
-0.793485
-0.810232
-0.826885
-0.823105
-0.830469
-0.829535
-0.81916
-0.803487
-0.781685
-0.759468
-0.754793
-0.811548
-0.825906
-0.821944
-0.817728
-0.792945
-0.784118
-0.802566
-0.81061
-0.74019
-0.760696
-0.732649
-0.779016
0.231055
0.209785
-0.0998385
-0.180625
0.11255
0.0520744
-0.080942
0.00622773
-0.0543475
-0.274235
-0.33523
-0.266569
-0.259316
-0.393166
-0.457136
-0.50741
-0.507008
-0.508131
-0.562208
-0.606338
-0.675246
-0.647771
-0.666787
-0.700181
-0.723925
-0.820477
-0.820022
-0.820008
-0.828829
-0.828784
-0.827405
-0.829987
-0.827747
-0.821596
-0.720362
-0.724547
-0.752407
-0.7565
-0.761261
-0.787138
-0.805999
-0.808079
-0.790672
-0.809943
-0.766568
-0.728314
-0.687872
-0.679237
-0.69652
-0.674233
-0.679348
-0.696431
-0.667487
-0.708561
-0.687609
-0.68831
-0.696481
-0.716033
-0.742641
0.171595
-0.72679
-0.824041
-0.828311
-0.820118
-0.833473
-0.83086
-0.819676
-0.803025
-0.778576
-0.749312
-0.721321
-0.714404
-0.83377
-0.824487
-0.821277
-0.817588
-0.794215
-0.805603
-0.813371
-0.773243
-0.755298
-0.746595
-0.788266
-0.78373
0.115953
0.0585874
-0.166528
-0.24687
0.00709049
-0.0453516
-0.14725
-0.0972517
-0.337043
-0.382837
-0.338055
-0.326418
-0.435051
-0.490767
-0.538308
-0.552909
-0.558458
-0.604376
-0.644774
-0.697191
-0.684049
-0.690355
-0.729706
-0.810175
-0.810513
-0.811681
-0.822847
-0.822646
-0.824222
-0.826109
-0.822989
-0.813686
-0.695483
-0.70502
-0.731625
-0.736655
-0.741299
-0.771261
-0.79318
-0.795446
-0.773978
-0.797734
-0.747376
-0.703067
-0.659539
-0.650365
-0.642363
-0.644055
-0.633709
-0.623503
-0.659913
-0.662861
-0.683536
-0.655502
-0.651578
-0.689891
0.055911
-0.682325
-0.836349
-0.800589
-0.831755
-0.819682
-0.798925
-0.774341
-0.742271
-0.705197
-0.673413
-0.664557
-0.833959
-0.822125
-0.819849
-0.819339
-0.81738
-0.80049
-0.809584
-0.81486
-0.770502
-0.757338
-0.795717
-0.788254
-0.0055372
-0.232744
-0.312789
-0.0990405
-0.224926
-0.149965
-0.198288
-0.410799
-0.404285
-0.392201
-0.490414
-0.545142
-0.67823
-0.591388
-0.601173
-0.641959
-0.712138
-0.722343
-0.717262
-0.70764
-0.750765
-0.799765
-0.800938
-0.814239
-0.815866
-0.819985
-0.802704
-0.813035
-0.6734
-0.70952
-0.717016
-0.724267
-0.751634
-0.777705
-0.780638
-0.755988
-0.783314
-0.725914
-0.675755
-0.628226
-0.618861
-0.610401
-0.601878
-0.594092
-0.583875
-0.572452
-0.616245
-0.608413
-0.646893
-0.607992
-0.637233
-0.0648636
-0.628378
-0.824703
-0.768864
-0.804856
-0.76502
-0.732345
-0.652907
-0.693089
-0.617862
-0.608462
-0.81222
-0.817155
-0.818333
-0.812808
-0.815872
-0.807104
-0.812448
-0.81466
-0.773876
-0.792949
-0.800359
-0.80806
-0.1367
-0.299269
-0.378158
-0.205653
-0.283953
-0.253159
-0.480249
-0.468265
-0.456055
-0.592276
-0.556484
-0.674161
-0.638179
-0.644133
-0.70444
-0.737673
-0.741257
-0.744822
-0.733065
-0.769017
-0.785611
-0.787649
-0.804432
-0.806955
-0.789728
-0.804351
-0.639479
-0.685896
-0.698057
-0.729769
-0.759928
-0.763539
-0.735207
-0.766749
-0.70045
-0.651287
-0.582632
-0.593986
-0.573953
-0.563717
-0.552593
-0.539256
-0.526789
-0.51352
-0.561004
-0.550936
-0.590221
-0.538141
-0.577533
-0.187286
-0.566848
-0.791066
-0.725669
-0.761447
-0.724783
-0.678681
-0.606139
-0.626949
-0.556443
-0.551573
-0.768627
-0.813697
-0.812882
-0.804346
-0.812826
-0.812801
-0.813236
-0.78899
-0.803056
-0.8111
-0.254681
-0.443491
-0.361906
-0.313255
-0.357699
-0.537408
-0.528289
-0.516613
-0.496539
-0.624927
-0.600957
-0.676346
-0.684182
-0.726231
-0.755728
-0.763002
-0.766535
-0.757073
-0.786149
-0.769182
-0.771124
-0.792574
-0.793572
-0.774323
-0.792796
-0.793852
-0.606799
-0.659227
-0.665751
-0.706063
-0.739961
-0.744571
-0.711775
-0.746556
-0.672386
-0.617298
-0.528297
-0.54424
-0.555707
-0.522884
-0.495354
-0.507589
-0.49249
-0.478024
-0.463481
-0.448278
-0.499401
-0.483737
-0.52354
-0.46622
-0.510369
-0.307971
-0.497371
-0.738837
-0.66983
-0.70192
-0.614212
-0.600186
-0.558435
-0.487573
-0.480022
-0.704012
-0.7963
-0.806234
-0.806344
-0.813274
-0.809126
-0.800323
-0.809624
-0.813202
-0.367229
-0.469048
-0.436603
-0.594108
-0.579541
-0.549928
-0.665808
-0.657986
-0.715366
-0.719801
-0.753477
-0.779749
-0.785192
-0.779796
-0.800545
-0.748499
-0.751202
-0.778245
-0.777115
-0.756064
-0.778359
-0.784028
-0.567936
-0.626589
-0.640697
-0.679137
-0.71814
-0.725329
-0.685425
-0.720114
-0.641103
-0.579753
-0.470041
-0.499765
-0.501574
-0.512692
-0.45873
-0.442858
-0.426499
-0.410139
-0.39483
-0.386583
-0.428668
-0.403578
-0.449198
-0.385122
-0.43414
-0.423413
-0.419126
-0.664019
-0.617012
-0.537621
-0.528001
-0.465976
-0.403972
-0.389417
-0.620286
-0.795679
-0.798567
-0.810826
-0.80195
-0.81325
-0.808728
-0.812383
-0.813497
-0.474827
-0.520477
-0.528341
-0.607807
-0.643974
-0.628117
-0.708712
-0.700082
-0.751044
-0.754111
-0.780316
-0.799493
-0.800236
-0.798889
-0.811157
-0.722899
-0.727708
-0.762186
-0.758773
-0.733112
-0.775153
-0.760543
-0.525995
-0.593907
-0.651251
-0.693832
-0.653817
-0.689803
-0.599526
-0.540152
-0.409492
-0.44181
-0.452648
-0.466779
-0.391504
-0.373497
-0.353746
-0.336389
-0.322097
-0.335172
-0.313038
-0.366076
-0.294196
-0.349478
-0.530242
-0.331386
-0.571909
-0.515489
-0.45267
-0.452347
-0.371619
-0.310253
-0.291519
-0.519582
-0.780909
-0.786383
-0.805026
-0.791146
-0.815447
-0.810358
-0.570902
-0.586077
-0.661182
-0.674754
-0.688409
-0.74503
-0.738551
-0.78062
-0.786109
-0.799218
-0.812405
-0.812216
-0.812386
-0.816866
-0.693517
-0.69969
-0.739707
-0.706835
-0.73666
-0.755307
-0.481053
-0.551523
-0.612048
-0.653988
-0.614728
-0.653257
-0.564388
-0.495319
-0.341953
-0.372235
-0.387712
-0.402481
-0.417316
-0.319325
-0.297014
-0.273041
-0.255988
-0.220069
-0.246911
-0.235329
-0.277146
-0.202609
-0.250766
-0.625211
-0.228454
-0.463244
-0.405422
-0.355593
-0.270973
-0.209014
-0.187136
-0.404643
-0.762724
-0.770274
-0.79592
-0.779665
-0.813287
-0.800837
-0.664695
-0.704961
-0.720214
-0.730033
-0.776683
-0.77249
-0.803873
-0.806825
-0.811083
-0.818862
-0.818687
-0.821489
-0.816437
-0.659671
-0.666597
-0.712379
-0.675488
-0.720814
-0.731458
-0.432416
-0.509229
-0.575398
-0.610332
-0.577054
-0.612065
-0.522448
-0.447015
-0.264335
-0.317737
-0.292494
-0.333409
-0.350329
-0.365315
-0.186472
-0.239124
-0.210227
-0.171454
-0.124807
-0.143366
-0.155905
-0.176518
-0.116962
-0.136855
-0.705428
-0.11924
-0.342031
-0.286742
-0.247153
-0.1645
-0.0990799
-0.076295
-0.278576
-0.741587
-0.754708
-0.780281
-0.805261
-0.789329
-0.738141
-0.761078
-0.767589
-0.802845
-0.800193
-0.820558
-0.821252
-0.82129
-0.821332
-0.824507
-0.811208
-0.754427
-0.619782
-0.629194
-0.684002
-0.640667
-0.693017
-0.703372
-0.379176
-0.460867
-0.532852
-0.556636
-0.565169
-0.47452
-0.395903
-0.222422
-0.187555
-0.258857
-0.240619
-0.277462
-0.296091
-0.310486
-0.0959046
-0.114178
-0.136368
-0.0785324
-0.0236992
-0.0439646
-0.0633321
-0.0554014
-0.0314936
-0.768273
-0.00973494
-0.213328
-0.146477
-0.0465009
0.0136198
0.038167
-0.14484
-0.716238
-0.725936
-0.766381
-0.78765
-0.791172
-0.796278
-0.817534
-0.823359
-0.829432
-0.829104
-0.827289
-0.816666
-0.821922
-0.797336
-0.73985
-0.575561
-0.588516
-0.649487
-0.59757
-0.67017
-0.657942
-0.324959
-0.411432
-0.488434
-0.515234
-0.50296
-0.425289
-0.343798
-0.115788
-0.157712
-0.199003
-0.178406
-0.217527
-0.233739
-0.253981
-0.00216037
-0.0208989
-0.038956
-0.0510548
0.042156
0.0812869
0.017437
0.0586345
0.0360619
0.0565583
0.0785647
-0.811777
0.103134
-0.0752844
0.00802431
0.0641729
0.128261
0.149343
-0.00716296
-0.683245
-0.696377
-0.751487
-0.76632
-0.833114
-0.823274
-0.832082
-0.830279
-0.829439
-0.82673
-0.805186
-0.813196
-0.776769
-0.710371