<VTKFile type="UnstructuredGrid" version="0.1" byte_order="LittleEndian">
<UnstructuredGrid>
<Piece NumberOfPoints="1995" NumberOfCells="3698">
<PointData Scalars="abs_term_u">
<DataArray type="Float64" Name="real_part_term_u" format="ascii">
0.0128185
0.0135125
0.0127781
0.01377
0.010604
0.0126249
0.0019441
0.0069599
0.0140376
0.0122087
0.0105898
0.00693745
0.0155679
0.00965023
0.0129986
0.016538
-0.00447833
-0.00113448
0.00483006
-0.00460968
0.00185277
-0.0124559
-0.021628
-0.032059
0.013466
0.0168325
0.00511235
0.0121316
0.00947856
0.0200817
0.0228053
-0.0123151
-0.0214745
0.0103176
0.0169195
-0.00785853
-0.003787
0.0027889
-0.00791524
-0.000983244
-0.0164171
-0.0263124
-0.0436946
-0.0374223
0.0218389
0.00359694
0.0158693
0.00991562
0.0267538
0.0290119
0.0312717
0.0257795
-0.0319182
-0.0435771
-0.0162414
-0.0260842
0.00877598
0.0182723
-0.0101661
-0.0015116
-0.00872873
-0.0563823
-0.0114075
-0.00278238
-0.0196272
-0.0564953
-0.0314452
-0.0495987
-0.0422314
0.0222492
0.0062746
0.0145392
0.00131196
0.0361597
0.030188
0.0372183
0.0360097
0.0439202
0.0317956
-0.0371954
-0.0492963
-0.0208232
-0.0306323
0.0198539
0.00736694
-0.016342
-0.00659552
-0.0702947
-0.0627824
-0.0550389
-0.0851987
-0.0703601
-0.0852124
-0.100967
-0.117544
-0.0102764
-0.0234528
-0.0629517
-0.0396633
-0.0532005
0.0614344
0.0213853
0.011434
0.00686623
-0.00278258
0.050086
0.0305134
0.0415491
-0.134849
-0.152784
0.0839451
0.0479808
0.0704161
0.0362828
-0.0417314
-0.0278858
0.0212489
0.00576948
-0.0213671
-0.00971524
-0.0542505
-0.0772463
-0.0675588
-0.101029
-0.0926429
0.481626
0.517992
0.497478
-0.0773402
-0.0926983
-0.108962
-0.125924
-0.0142257
-0.0274721
-0.0686234
-0.0432432
-0.0566576
0.113269
0.141641
0.0713526
0.0946329
0.0178341
0.00594625
-0.00540143
0.058889
0.0303931
0.0441413
-0.171253
-0.143542
-0.161706
-0.190172
0.454663
0.419328
0.381479
0.513867
0.518529
0.498956
0.470784
0.339898
0.176638
0.298269
0.256988
0.217121
0.171194
0.142414
0.116064
0.0938407
0.0562885
0.076156
0.0407577
-0.037874
0.0227937
0.00390935
-0.0247081
-0.0115036
-0.055888
-0.153071
-0.13508
-0.11771
-0.0723006
-0.0844268
-0.108742
-0.0993088
-0.171673
0.469497
0.43568
0.398696
0.512348
0.515061
0.499128
0.47974
0.509561
-0.0840924
-0.100082
-0.11824
-0.133814
0.316163
0.275078
-0.0154019
-0.0310702
-0.046876
-0.0739147
-0.0607141
0.23453
0.194355
0.154643
0.121442
0.080154
0.101499
0.0188264
-2.88495e-05
0.0638811
0.0411863
0.359461
0.322964
-0.209401
-0.22884
-0.180478
-0.151643
-0.170543
-0.199583
0.437887
0.361008
0.400967
0.513937
0.516811
0.502177
0.482911
0.453836
0.319541
0.200146
0.278382
0.237027
0.184058
0.15545
0.124579
0.0947138
0.0622945
0.0458307
-0.0585269
-0.0402873
0.0249492
-0.00133764
-0.0244911
-0.162589
-0.0762113
-0.145283
-0.126742
-0.0950764
-0.114757
-0.190711
-0.181045
-0.21006
-0.229642
0.449773
0.415237
0.383128
0.506471
0.487523
0.460947
0.50148
0.501952
-0.0918161
-0.109791
-0.130432
0.286055
0.251294
-0.0164744
-0.0367153
-0.0586606
-0.0818371
0.212683
0.169076
0.125948
0.0902348
0.019844
-0.00319626
0.0686292
0.0440226
0.348489
0.300317
-0.248403
-0.267963
-0.32571
-0.287458
-0.306738
-0.218974
-0.238505
-0.151762
-0.187859
-0.171062
-0.208785
0.33747
0.418155
0.371056
0.509496
0.512463
0.492026
0.466692
0.433523
0.494255
0.29987
0.21104
0.257344
0.172063
0.137552
0.104868
0.0738599
0.0513695
0.026599
-0.0780873
-0.0609405
-0.0418589
0.0013296
-0.0236795
-0.170112
-0.1565
-0.0985504
-0.138863
-0.119555
-0.200023
-0.186454
-0.249374
-0.219483
-0.239498
-0.269124
0.426394
0.382897
0.490188
0.468895
0.438405
0.489565
0.493639
0.493058
0.482852
-0.110479
-0.13991
0.245481
-0.0320707
-0.0648537
-0.0904638
0.187035
0.140741
0.100544
0.0187337
-0.00855677
0.0716476
0.0443908
0.325889
0.266859
-0.413658
-0.333378
-0.344393
-0.397276
-0.36257
-0.380221
-0.258143
-0.277662
-0.316378
-0.297419
-0.228381
-0.247207
-0.171673
-0.196588
-0.218754
0.322956
0.392884
0.347597
0.504532
0.505987
0.476238
0.446833
0.409173
0.485743
0.278123
0.190467
0.233303
0.151008
0.11545
0.0812809
0.0493783
0.00571143
-0.0977911
-0.0740155
-0.0514476
-0.0238082
-0.16544
-0.121635
-0.145629
-0.288775
-0.208265
-0.193232
-0.259192
-0.229903
-0.247808
-0.278927
-0.308206
-0.327311
-0.346145
-0.44416
-0.42934
-0.458301
-0.471538
-0.483921
-0.524863
-0.532987
-0.540306
-0.569814
-0.562458
-0.566408
0.401771
0.351317
0.472822
0.445332
0.415172
0.477883
0.48286
0.471956
0.472734
0.460677
-0.120022
-0.149884
0.207586
-0.0385214
-0.0694318
-0.0961586
-0.012857
0.15235
0.107392
0.021653
0.0646469
0.290073
0.227717
-0.4214
-0.406508
-0.334332
-0.353644
-0.388789
-0.37158
-0.266988
-0.287373
-0.308057
-0.181212
-0.243775
-0.211816
0.299601
0.365281
0.318622
0.497504
0.498228
0.488681
0.4577
0.423214
0.38118
0.482235
0.462692
-0.120909
0.251706
0.16415
0.205722
0.127584
0.0887281
0.0554362
0.0220735
-0.0167251
-0.0850654
-0.0519131
-0.572327
-0.565262
-0.569072
-0.549989
-0.560841
-0.555769
-0.174135
-0.150214
-0.298402
-0.218916
-0.204482
-0.265812
-0.245138
-0.286708
-0.317804
-0.336818
-0.382228
-0.364524
-0.355351
-0.399543
-0.39287
-0.44682
-0.41605
-0.431797
-0.51903
-0.528028
-0.543445
-0.536128
-0.46104
-0.474397
-0.509189
-0.498486
-0.486889
-0.583669
-0.515886
-0.506077
-0.495451
-0.520676
-0.451925
-0.437496
-0.464474
-0.477771
-0.489982
-0.58415
-0.584442
-0.584551
-0.584494
-0.584284
-0.557896
-0.546879
-0.552728
-0.529185
-0.536776
-0.543156
-0.581683
-0.580499
-0.579051
-0.577304
-0.575225
-0.572744
-0.571383
-0.560335
-0.568364
-0.564744
-0.582635
-0.583915
-0.583377
-0.582099
0.37444
0.316084
0.450382
0.407694
0.459687
0.454925
0.461437
0.452247
0.450237
0.440453
-0.127513
-0.155552
0.165585
-0.0392169
-0.0688489
-0.100477
-0.00344524
0.10154
0.0414634
0.249622
0.184033
-0.419641
-0.400858
-0.337281
-0.356871
-0.382418
-0.27901
-0.313468
-0.179798
-0.21657
-0.249191
0.270294
0.334283
0.286915
0.486741
0.480646
0.478801
0.46849
0.43407
0.396228
0.349358
0.467173
0.44257
-0.117926
-0.153005
0.220211
0.129497
0.172206
0.100612
0.0872527
0.0371342
-0.00638781
-0.0454612
-0.0828671
-0.117815
-0.582973
-0.582025
-0.575083
-0.577383
-0.579265
-0.580797
-0.573789
-0.570807
-0.563211
-0.567274
-0.546922
-0.553107
-0.558497
-0.188493
-0.215249
-0.309202
-0.23605
-0.270294
-0.296944
-0.330725
-0.347121
-0.378193
-0.364682
-0.407882
-0.39909
-0.454532
-0.439556
-0.423619
-0.51443
-0.523993
-0.531623
-0.539645
-0.544122
-0.468047
-0.481241
-0.504299
-0.493262
-0.583284
-0.583861
-0.511307
-0.501257
-0.524899
-0.51747
-0.441374
-0.454831
-0.470687
-0.485105
-0.496213
-0.584208
-0.58441
-0.584434
-0.584303
-0.58403
-0.554994
-0.549595
-0.533272
-0.542076
-0.58106
-0.57975
-0.578185
-0.576377
-0.574041
-0.570234
-0.572532
-0.563006
-0.558045
-0.567278
-0.581284
-0.582938
-0.58357
-0.58218
0.341256
0.271059
0.431466
0.419472
0.362015
0.42743
0.438123
0.438122
0.429778
-0.173289
-0.138549
0.121753
-0.0450255
-0.0935991
-0.00331541
0.0544605
0.198926
0.14413
-0.42576
-0.344966
-0.403798
-0.367988
-0.371317
-0.289401
-0.322756
-0.218381
-0.259556
0.236811
0.300807
0.252415
0.468071
0.458559
0.460854
0.4685
0.40797
0.36445
0.31393
0.44333
0.414824
-0.151942
-0.190232
0.183057
0.12394
0.0627006
0.00756427
-0.0383845
-0.0896856
-0.145848
-0.581386
-0.58246
-0.576331
-0.578505
-0.580079
-0.580609
-0.575067
-0.572594
-0.56122
-0.569092
-0.565494
-0.550478
-0.556396
-0.228832
-0.322949
-0.273524
-0.305549
-0.356704
-0.385998
-0.414628
-0.449671
-0.461219
-0.435561
-0.513498
-0.524675
-0.5361
-0.546661
-0.475938
-0.487605
-0.499683
-0.511617
-0.582651
-0.583576
-0.442572
-0.508111
-0.523611
-0.461557
-0.478919
-0.49489
-0.583886
-0.58403
-0.583933
-0.583421
-0.550984
-0.539497
-0.579997
-0.577973
-0.574887
-0.571735
-0.563949
-0.558676
-0.567409
-0.580214
-0.581255
-0.582679
0.292288
0.213536
0.424692
0.422462
0.380155
0.314453
0.394157
0.405153
0.410862
-0.201731
-0.144104
0.0769258
-0.0705075
0.000615681
0.12361
-0.421171
-0.358584
-0.391608
-0.317192
-0.358338
-0.262557
0.203519
0.26281
0.217959
0.444816
0.441528
0.449987
0.449307
0.446737
0.377418
0.32408
0.274815
0.402579
-0.188367
-0.229734
-0.179416
0.142666
0.0191295
0.0759589
-0.0279567
-0.0731984
-0.0156692
-0.12892
-0.581407
-0.581523
-0.577326
-0.57958
-0.574889
-0.571101
-0.560485
-0.566041
-0.555042
-0.26935
-0.344368
-0.308309
-0.266006
-0.405058
-0.382552
-0.426239
-0.457782
-0.447107
-0.548779
-0.524325
-0.538551
-0.517842
-0.483277
-0.503141
-0.381804
-0.582133
-0.582581
-0.45617
-0.512748
-0.529857
-0.482201
-0.504597
-0.582911
-0.582145
-0.544043
-0.552211
-0.57866
-0.575605
-0.571322
-0.561751
-0.566923
-0.579278
-0.580317
0.238967
0.147876
0.42035
0.418206
0.415752
0.400275
0.333463
0.265934
0.351177
0.372779
-0.21477
-0.143505
0.0220058
-0.0645448
0.0470956
-0.414923
-0.445587
-0.399005
-0.380401
-0.332272
-0.28834
0.163542
0.21052
0.434525
0.41271
0.433464
0.437855
0.424488
0.337315
0.254662
0.359398
-0.231694
-0.193683
-0.148097
0.0939905
0.0141747
-0.0647718
-0.580204
-0.580168
-0.577721
-0.573713
-0.569525
-0.564095
-0.556639
-0.30571
-0.34482
-0.287865
-0.415042
-0.444466
-0.466106
-0.545443
-0.528684
-0.514379
-0.490704
-0.412853
-0.378163
-0.580411
-0.579476
-0.479476
-0.537321
-0.521444
-0.506689
-0.578997
-0.5772
-0.548613
-0.555151
-0.576604
-0.573121
-0.569752
-0.562351
-0.566771
-0.575693
0.182887
0.073508
0.409888
0.423636
0.390568
0.350668
0.248848
0.284305
-0.218817
-0.138979
-0.0518807
-0.0325434
-0.449542
-0.420579
-0.366872
-0.297856
0.124643
0.169489
0.430461
0.426799
0.428367
0.37598
0.418391
0.399865
0.286855
0.214562
0.30529
-0.259131
-0.223876
-0.107272
-0.170802
0.0407783
-0.0458468
-0.577925
-0.576945
-0.57496
-0.570664
-0.557418
-0.564283
-0.34459
-0.312545
-0.44648
-0.473513
-0.548368
-0.533152
-0.52038
-0.499955
-0.44372
-0.398681
-0.573866
-0.57241
-0.490384
-0.515101
-0.546352
-0.529759
-0.571098
-0.568394
-0.557641
-0.571599
-0.568285
-0.563795
-0.564949
0.103039
-0.00111332
0.358628
0.280228
0.184412
0.143598
-0.219076
-0.127427
-0.116878
-0.482001
-0.433153
-0.376012
-0.304603
0.07622
0.131766
0.420089
0.396887
0.43389
0.336677
0.370873
0.203804
0.244499
-0.295369
-0.250852
-0.135865
-0.0256884
-0.573065
-0.570828
-0.567708
-0.558541
-0.564086
-0.364373
-0.55177
-0.482748
-0.538245
-0.516003
-0.472533
-0.435163
-0.55798
-0.560526
-0.56137
-0.562506
-0.521925
-0.553961
-0.542885
-0.557555
-0.552758
-0.557887
-0.562662
-0.560246
-0.553459
-0.546771
-0.032678
0.184716
0.0433243
-0.252817
-0.223197
-0.527904
-0.492762
-0.444516
-0.374007
0.0224355
0.0953685
0.350496
0.367881
0.284902
0.130336
0.181646
-0.350321
-0.332304
-0.231112
-0.102582
-0.565104
-0.563594
-0.562365
-0.56176
-0.427912
-0.550973
-0.507284
-0.536927
-0.487906
-0.558741
-0.544547
-0.544262
-0.541447
-0.544266
-0.547238
-0.555072
-0.535839
-0.533059
-0.546313
-0.540578
-0.52478
-0.52312
-0.55052
-0.157043
-0.0558393
-0.3331
-0.362249
-0.534773
-0.504093
-0.453927
-0.0245198
0.193559
0.0498246
-0.415525
-0.405864
-0.316682
-0.199623
-0.550858
-0.552602
-0.556051
-0.479781
-0.554961
-0.532428
-0.525933
-0.556517
-0.517501
-0.507749
-0.508749
-0.512904
-0.552069
-0.539987
-0.497683
-0.513339
-0.468325
-0.486356
-0.552971
-0.550707
-0.409416
-0.304339
-0.464099
-0.547155
-0.522986
-0.153183
-0.0516461
-0.475174
-0.402091
-0.458408
-0.333889
-0.522079
-0.537193
-0.521904
-0.558577
-0.552467
-0.546728
-0.542122
-0.451547
-0.39692
-0.44965
-0.449978
-0.46362
-0.531126
-0.505174
-0.41774
-0.448809
-0.392229
-0.397052
-0.554591
-0.520353
-0.49476
-0.552073
-0.563953
-0.304856
-0.525171
-0.462475
-0.428337
-0.481674
-0.499698
-0.550327
-0.556947
-0.560664
-0.516601
-0.325766
-0.351528
-0.371482
-0.394405
-0.467462
-0.296629
-0.390228
-0.343296
-0.278258
-0.444666
-0.522047
-0.572308
-0.558837
-0.564143
-0.49716
-0.547184
-0.423595
-0.462419
-0.53148
-0.561214
-0.476739
-0.179036
-0.212083
-0.242157
-0.273103
-0.307045
-0.348866
-0.141039
-0.24061
-0.109183
-0.304272
-0.410688
-0.457257
-0.515012
-0.569827
-0.579261
-0.369895
-0.519349
-0.52477
-0.407201
-0.00331426
-0.0733781
-0.0808425
-0.105208
-0.149684
-0.196673
-0.1787
0.0394895
-0.0667973
0.0669754
0.188806
-0.116885
-0.265054
-0.332267
-0.527969
-0.24826
-0.428898
-0.303751
0.114785
0.0898649
0.0427726
-0.00737876
-0.0560332
0.0433915
0.224203
0.209122
0.329097
0.366335
0.122397
-0.0690768
-0.0680639
-0.341348
-0.117966
-0.20795
0.242749
0.288717
0.191815
0.144122
0.0613296
0.284867
0.393833
0.426936
0.448013
0.477908
0.499382
0.349499
0.215217
-0.0747927
0.0704884
0.371962
0.411063
0.336686
0.257751
0.531271
0.462951
0.521026
0.541801
0.548649
0.558669
0.564444
0.49384
0.443256
0.20823
0.370433
0.464126
0.503085
0.464142
0.567169
0.567161
0.555975
0.566471
0.561395
0.561388
0.551997
0.534803
0.561018
0.440877
0.519955
0.556311
0.552322
0.502998
0.5284
0.550557
0.559584
0.502136
0.518613
0.473386
0.441639
0.399707
0.536799
0.561278
0.569319
0.56041
0.341293
0.385702
0.495628
0.429293
0.465016
0.380936
0.292349
0.241656
0.197579
0.377996
0.541026
0.492723
0.108593
0.168798
0.223432
0.37374
0.255762
0.25613
0.123492
0.0492129
0.002254
-0.0159308
-0.150167
0.125349
0.386676
0.275267
-0.0908312
-0.0302157
0.0414833
0.164074
-0.332855
-0.0233541
-0.156348
-0.204285
-0.249348
-0.379427
-0.159051
0.136276
0.00496556
-0.280839
-0.224691
-0.124188
-0.474319
-0.504979
-0.354472
-0.320039
-0.421433
-0.46582
-0.527478
-0.405006
-0.147671
-0.273302
-0.436884
-0.40131
-0.555737
-0.568259
-0.566424
-0.492942
-0.491691
-0.54672
-0.562773
-0.556146
-0.551242
-0.394788
-0.480791
-0.537626
-0.528685
-0.56538
-0.55236
-0.536238
-0.499265
-0.572074
-0.554262
-0.547979
-0.439424
-0.566854
-0.545487
-0.567175
-0.559203
-0.352046
-0.414412
-0.479769
-0.299511
-0.255446
-0.491368
-0.31566
-0.383904
-0.203608
-0.35801
-0.56912
-0.132205
-0.5008
-0.182377
-0.247384
-0.309854
-0.0875835
-0.0469419
-0.238007
-0.125003
-0.154258
-0.0045623
-0.124591
-0.364397
0.0496426
0.0118384
-0.231517
-0.0296073
-0.11326
0.083534
0.108632
-0.0226161
0.041763
0.141608
0.0648142
-0.132194
0.177643
0.153218
0.125235
-0.0305448
0.0904624
0.196438
0.20223
0.136555
0.192712
0.237544
0.192269
0.0575829
0.24692
0.235999
0.22209
0.206649
0.185685
0.13499
0.252963
0.231603
0.262925
0.255612
0.264183
0.264441
0.255449
0.18715
0.26409
0.26168
0.25715
0.246556
0.22726
0.262005
0.265114
0.257847
0.262006
0.248101
0.239999
0.262321
0.251782
0.25444
0.258992
0.262078
0.262384
0.230339
0.249037
0.226395
0.226875
0.213626
0.2015
0.188543
0.227328
0.259755
0.224781
0.23533
0.243633
0.167952
0.174894
0.199752
0.169817
0.153699
0.139136
0.124417
0.16732
0.225892
0.182642
0.199779
0.18856
0.102689
0.11736
0.111814
0.133457
0.092224
0.0881332
0.0738214
0.0598394
0.0984019
0.166868
0.133319
0.131382
0.0403051
0.0537809
0.0673238
0.0467171
0.0647766
0.0338111
0.0275775
0.0154652
0.00407154
0.0334865
0.0985015
-0.0112226
0.0683489
-0.000864267
0.0112006
0.0267213
-0.00912323
0.00548767
-0.0208279
-0.0296355
-0.0379198
-0.0187355
0.0339844
-0.0475594
-0.0407702
0.00368905
-0.0330151
-0.0202159
-0.0490554
-0.036619
-0.0535369
-0.0587054
-0.063353
-0.0676494
-0.0537199
-0.0180096
-0.0644237
-0.0603959
-0.0393669
-0.0562785
-0.0670606
-0.0627418
-0.0701248
-0.0717894
-0.0727242
-0.0728428
-0.0729738
-0.0707631
-0.0528937
-0.0721326
-0.0711107
-0.0635128
-0.0697293
-0.0705524
-0.0733765
-0.0725289
-0.0718164
-0.0710217
-0.0688377
-0.0666945
-0.0723639
-0.0700442
-0.0716768
-0.0724013
-0.0725906
-0.0625648
-0.0595498
-0.0683144
-0.0649357
-0.063488
-0.0618467
-0.0562825
-0.0525912
-0.0625329
-0.0717992
-0.0652333
-0.0685705
-0.050974
-0.047055
-0.0431468
-0.0547086
-0.0544672
-0.0477292
-0.045761
-0.0391462
-0.035159
-0.0458403
-0.0620108
-0.05329
-0.0383934
-0.0332567
-0.0290393
-0.025049
-0.0363733
-0.0344967
-0.0263631
-0.0211276
-0.0179179
-0.0268075
-0.0454858
-0.0336137
-0.0199921
-0.0154027
-0.0117474
-0.00824388
-0.0176595
-0.0141321
-0.00797412
-0.00490452
-0.00173159
-0.00895878
-0.0265617
-0.0167954
-0.00824316
-0.00356555
-0.00026796
0.00261746
0.00527133
-0.00139472
0.00147078
0.0049293
0.00771054
0.00991613
0.00534286
-0.0088227
-0.00095625
0.00470875
0.0087257
0.0109378
0.0128186
0.0144773
0.0103637
0.0128449
0.0159122
0.0171635
0.0149039
0.00537035
0.0108541
0.014703
0.0165318
0.0176354
0.0185357
0.0192328
0.0171153
0.018947
0.0197367
0.0200704
0.0195346
0.0148493
0.0177315
0.0196672
0.0198716
0.0201063
0.0201612
0.0200537
0.0201399
0.0201115
0.0197916
0.0193522
0.0199134
0.0194562
0.0201079
0.0198398
0.0199404
0.019589
0.0191302
0.0185536
0.0178704
0.0190874
0.0171272
0.0163778
0.0171599
0.0198484
0.0189141
0.0179761
0.0174208
0.0166503
0.0157534
0.0147946
0.0137822
0.0149075
0.0127331
0.012548
0.0125741
0.0170891
0.0148022
0.0141699
0.0132464
0.0121756
0.0110849
0.00997961
0.00888042
0.00996579
0.00781817
0.00734226
0.0125082
0.00992281
0.00991996
0.0094476
0.00829944
0.00720138
0.0061178
0.00505838
0.00403001
0.00484129
0.00238793
0.00244684
0.00729499
0.00599258
0.00500701
0.00455282
0.0035231
0.00254755
0.00162041
0.000741387
-0.000127255
0.000354084
-0.00105724
-0.00146249
0.00240795
0.000992712
0.00152652
0.000319827
-0.000483107
-0.00122609
-0.00191057
-0.00253628
-0.00308554
-0.00313229
-0.00406884
-0.00150129
-0.00155824
-0.00223155
-0.00283136
-0.0033634
-0.00383471
-0.00424661
-0.00459941
-0.00487618
-0.00501088
-0.00536132
-0.00350942
-0.00408857
-0.00400812
-0.0044309
-0.00475873
-0.00502476
-0.00523491
-0.00539299
-0.00550239
-0.00555155
-0.00554227
-0.00550899
-0.00536157
-0.00509745
-0.00531195
-0.00545428
-0.00553717
-0.0055728
-0.00556528
-0.00551598
-0.00543223
-0.00532792
-0.00482725
-0.00553112
-0.00550736
-0.0055738
-0.00554719
-0.0054791
-0.00537771
-0.00524373
-0.0050754
-0.00488164
-0.00464082
-0.00424551
-0.00365479
-0.00533014
-0.00482047
-0.0051539
-0.00497895
-0.00478477
-0.0045692
-0.0043303
-0.0040712
-0.00379372
-0.00344997
-0.00287575
-0.00230306
-0.00364891
-0.00437629
-0.00451784
-0.00394518
-0.00368099
-0.00341322
-0.00313109
-0.00284834
-0.00255186
-0.00236187
-0.00229791
-0.00151141
-0.00101531
0.0018447
0.00184913
0.00184373
-0.00296218
-0.00355518
-0.00288303
-0.00270789
-0.002434
-0.00215955
-0.00190387
-0.00165176
-0.00146648
-0.000731796
-0.00101368
-0.00163623
-0.000421966
5.26535e-05
0.000841425
0.00183803
0.00136036
0.00180672
0.00166033
0.00184284
0.00183732
4.50471e-05
-0.0020916
-0.00177598
-0.00146521
-0.00126791
-0.00103296
-0.000830332
-0.000537703
5.31504e-05
0.000842329
-0.000447445
-0.000996958
0.000543846
0.00118197
0.00181384
0.00156677
0.00174467
0.0018424
0.00183932
0.00182692
0.0018421
0.000575519
0.000325649
0.00184681
0.00185103
-0.000871267
-0.000647029
-0.000484782
-0.000310495
-0.000128985
7.75455e-05
0.00166378
0.00136177
0.000493124
0.00114808
4.00208e-05
0.00100655
0.00139115
0.00159335
0.00179106
0.00171263
0.00183816
0.00181744
0.00183999
0.00184185
0.00086449
0.000731743
0.0018459
0.00184156
0.00184517
0.00184456
0.00180989
5.48095e-05
0.000184001
0.000283494
0.000425549
0.000582307
0.00171908
0.00155109
0.00135786
0.000866592
0.000575233
0.00127373
0.00153563
0.00169036
0.00177643
0.00180682
0.00183067
0.00184003
0.00184186
0.00183831
0.00184409
0.00118948
0.00115097
0.00184196
0.00182388
0.00184195
0.00184104
0.00178597
0.000717376
0.000757913
0.000847087
0.000959554
0.00128496
0.00171208
0.00107072
0.00161057
0.00148157
0.00117663
0.0018418
0.00147973
0.00165799
0.00175701
0.00179592
0.00182557
0.00184134
0.00183901
0.00183005
0.00184366
0.00145143
0.00145971
0.00182601
0.00183282
0.00178062
0.00145356
0.0011028
0.00116974
0.00127599
0.00173296
0.0013238
0.00164503
0.00150562
0.00184041
0.00162401
0.00174637
0.00180703
0.00184137
0.00183733
0.00182235
0.00184352
0.00161634
0.00158533
0.00182773
0.00180248
0.00154263
0.00139132
0.00144651
0.00174682
0.0015535
0.00166929
0.00183962
0.00171541
0.00179365
0.00184142
0.001839
0.00182766
0.00184309
0.00169822
0.00167563
0.0018281
0.00180124
0.00167525
0.00162925
0.0015886
0.00176055
0.00169131
0.00183935
0.00183129
0.00177173
0.00181585
0.00184145
0.00183654
0.00184266
0.00175882
0.00174862
0.00181225
0.00173537
0.0017157
0.00177335
0.00183887
0.00182895
0.00180434
0.00182664
0.0018416
0.00183778
0.00184255
0.00179964
0.00179249
0.00181656
0.00179201
0.00183726
0.00182756
0.00184123
0.00183889
0.00184216
0.00182237
0.0018226
0.00182791
0.00183871
0.00183779
0.00184139
0.00184182
0.00183721
0.00183763
0.00184175
0.00184184
</DataArray>
<DataArray type="Float64" Name="imag_part_term_u" format="ascii">
1.09162
1.09212
1.0916
1.09206
1.09006
1.0912
1.08379
1.08745
1.09212
1.09099
1.09002
1.0874
1.09232
1.08907
1.09061
1.09131
1.07901
1.08123
1.08556
1.07888
1.08369
1.07294
1.06581
1.05747
1.0912
1.09242
1.08577
1.08987
1.08896
1.09278
1.09206
1.07307
1.06594
1.08814
1.08942
1.07622
1.0786
1.08304
1.07615
1.08131
1.06966
1.06191
1.04787
1.05292
1.09269
1.08388
1.091
1.08794
1.09304
1.09263
1.09233
1.09048
1.05758
1.04796
1.06983
1.0621
1.08485
1.08692
1.07368
1.07852
1.0733
1.037
1.0729
1.07897
1.06654
1.03695
1.05726
1.04275
1.0486
1.09123
1.08417
1.08842
1.07949
1.09275
1.0911
1.09213
1.09069
1.0915
1.08829
1.05311
1.04298
1.06565
1.05801
1.08348
1.08104
1.06786
1.07276
1.02464
1.03127
1.03774
1.01087
1.02467
1.01098
0.995825
0.979163
1.07229
1.06244
1.03118
1.04989
1.03929
1.0886
1.08855
1.08468
1.08036
1.0748
1.09127
1.08825
1.09043
0.960948
0.941148
1.08238
1.08859
1.08425
1.08465
1.04877
1.05926
1.07852
1.07598
1.06222
1.06697
1.03779
1.0182
1.0267
0.995605
1.00372
0.363239
-0.0484351
0.261468
1.01823
1.00381
0.987864
0.970469
1.06723
1.05768
1.02582
1.04534
1.03556
1.07006
1.05372
1.08661
1.07853
1.0839
1.07695
1.07072
1.08804
1.08435
1.08685
0.919722
0.951523
0.931027
0.896637
0.489602
0.613216
0.716505
0.102159
-0.0475849
0.255059
0.418357
0.807583
1.02795
0.88173
0.941882
0.989285
1.02997
1.05177
1.0657
1.0769
1.08321
1.07916
1.07929
1.05007
1.07239
1.06962
1.05714
1.06207
1.03487
0.940594
0.960479
0.978797
1.02182
1.01127
0.98791
0.99711
0.918992
0.421106
0.556491
0.669472
0.0945537
-0.0506373
0.221892
0.354894
-0.054063
1.01173
0.996525
0.978411
0.962127
0.849902
0.915545
1.06353
1.05291
1.04065
1.02046
1.03083
0.968765
1.01125
1.04416
1.06549
1.08231
1.07389
1.079
1.06982
1.08307
1.08075
0.764343
0.832283
0.871932
0.845606
0.908743
0.942736
0.920878
0.884882
0.550855
0.761816
0.664346
0.0902373
-0.0481349
0.2101
0.345515
0.483269
0.844118
1.00441
0.910485
0.964838
1.01547
1.03819
1.0573
1.07061
1.07712
1.07285
1.03036
1.04513
1.06567
1.06192
1.05278
0.929762
1.01714
0.949383
0.969403
1.00087
0.981779
0.895741
0.907817
0.870863
0.844331
0.49403
0.613589
0.70272
0.114912
0.283322
0.427513
0.0779457
-0.0585083
1.00404
0.986801
0.965824
0.894542
0.944627
1.059
1.04627
1.03003
1.01235
0.988941
1.02923
1.05935
1.075
1.07265
1.06153
1.07541
1.07222
0.777809
0.864016
0.817641
0.788105
0.690453
0.756969
0.724393
0.859373
0.832245
0.942889
0.900054
0.920742
0.873559
0.806473
0.607842
0.732871
0.1062
-0.0498911
0.268732
0.411756
0.544496
0.218436
0.873021
0.988298
0.934897
1.02063
1.04371
1.05964
1.06907
1.0653
1.05918
1.01362
1.02582
1.03967
1.05501
1.04748
0.921115
0.936886
0.996522
0.95661
0.97675
0.884109
0.901582
0.816129
0.858496
0.830686
0.786316
0.56275
0.690787
0.222368
0.358209
0.495615
0.171135
0.0694734
-0.0636969
-0.0693917
0.98583
0.955999
0.945324
1.04535
1.0214
1.00306
1.00651
1.04217
1.06426
1.06431
1.05224
1.06584
1.06364
0.809598
0.904725
0.502033
0.676464
0.654943
0.541718
0.618329
0.580545
0.803453
0.773186
0.707864
0.740812
0.847217
0.820365
0.921141
0.89007
0.861408
0.827258
0.665968
0.76977
0.0901896
-0.0527534
0.337771
0.475382
0.603502
0.245085
0.898669
0.998543
0.956223
1.02784
1.0472
1.0595
1.0555
1.04893
0.995649
1.01458
1.02917
1.0411
0.927085
0.974237
0.949596
0.754963
0.874041
0.894114
0.801803
0.84487
0.819229
0.771256
0.722153
0.687971
0.652267
0.420623
0.461477
0.379039
0.337361
0.29563
0.131511
0.0921444
0.0538459
-0.145561
-0.0859768
-0.116748
0.616332
0.74082
0.293705
0.433386
0.551587
0.205733
0.0828902
-0.0753122
0.0751146
-0.0811255
0.975746
0.945849
0.975566
1.03497
1.01387
0.995938
1.0436
1.02285
1.05129
1.05458
1.05575
0.854024
0.937717
0.482778
0.5203
0.675904
0.637117
0.561942
0.599845
0.791049
0.758427
0.724672
0.911887
0.827427
0.872881
0.855581
0.716342
0.809428
0.09286
-0.0564589
-0.0607158
0.403098
0.536498
0.658729
0.208843
0.342213
0.974223
0.923221
1.00933
0.974385
1.03224
1.04788
1.04489
1.04517
1.03721
1.00378
1.02332
-0.149161
-0.0900165
-0.120584
0.0122405
-0.0575606
-0.0234352
0.917972
0.945179
0.739438
0.861193
0.881661
0.792745
0.824441
0.760317
0.705823
0.670612
0.577451
0.615239
0.634563
0.538199
0.553953
0.416636
0.498366
0.457852
0.167206
0.12687
0.0493619
0.0876529
0.374978
0.333119
0.208159
0.249516
0.291225
-0.285152
0.171807
0.212708
0.253958
0.151091
0.398521
0.4402
0.36054
0.317393
0.274741
-0.294418
-0.300945
-0.304885
-0.30602
-0.304463
-0.0532596
0.0166846
-0.0190375
0.111331
0.0730294
0.0382338
-0.271383
-0.256438
-0.238984
-0.219059
-0.196858
-0.17235
-0.160308
-0.0705149
-0.133631
-0.103812
-0.283661
-0.300205
-0.293237
-0.278752
0.662225
0.785385
0.364636
0.539759
0.248338
0.194096
0.067404
0.0516883
-0.0865528
-0.091453
0.967844
0.940406
0.997136
1.02864
1.01026
0.989738
1.03999
1.0356
1.04444
0.889695
0.962392
0.489564
0.535412
0.673493
0.632507
0.578476
0.775387
0.720318
0.915645
0.870757
0.824078
0.884985
0.762446
0.845243
0.101008
0.0490914
-0.0652173
-0.0697693
0.469718
0.593381
0.709968
0.264107
0.399818
0.975647
0.943001
0.946201
1.01861
0.990561
1.02348
1.03614
1.03734
1.03302
1.02085
1.00116
0.974249
-0.273217
-0.258673
-0.175666
-0.199929
-0.221858
-0.241502
-0.163517
-0.135917
-0.0746454
-0.106043
0.0303897
-0.00640608
-0.0413209
0.903102
0.869469
0.722864
0.84018
0.788364
0.746873
0.684657
0.652113
0.587169
0.617206
0.519114
0.541434
0.395066
0.437603
0.480047
0.187262
0.145676
0.110431
0.0701102
0.0470125
0.353982
0.311188
0.228165
0.269407
-0.280428
-0.290737
0.191693
0.232491
0.132707
0.166472
0.432924
0.391806
0.343196
0.294537
0.253196
-0.298586
-0.304529
-0.306835
-0.306441
-0.303591
-0.0336477
0.000661771
0.0923331
0.0452243
-0.265329
-0.248955
-0.229989
-0.210076
-0.185709
-0.15197
-0.173299
-0.0913333
-0.0546184
-0.126758
-0.275536
-0.289818
-0.299286
-0.28687
0.706126
0.833677
-0.0955146
0.445263
0.621627
0.349615
0.221388
0.107318
0.0557287
0.924635
0.957472
1.00632
1.0194
0.991731
1.02891
1.02838
0.924574
0.975301
0.478302
0.664978
0.533144
0.620912
0.607755
0.765275
0.710465
0.873004
0.815622
0.912912
0.80344
0.876659
0.189973
-0.0740737
0.0557407
0.091885
0.528799
0.649322
0.757507
0.34892
0.474027
0.944756
0.904172
0.96605
1.00692
1.02805
1.02779
1.01743
0.992775
0.9512
-0.251275
-0.267294
-0.189423
-0.214104
-0.233667
-0.245043
-0.178339
-0.154087
-0.0602373
-0.12232
-0.0925849
0.0105624
-0.0270137
0.854855
0.702806
0.788753
0.737049
0.637198
0.573795
0.506251
0.410997
0.376489
0.451926
0.193627
0.144367
0.0905703
0.0347615
0.330673
0.291191
0.248699
0.204678
-0.278569
-0.294133
0.4358
0.208045
0.141819
0.377385
0.320244
0.264398
-0.306377
-0.309838
-0.310286
-0.30714
-0.00709615
0.0625724
-0.25902
-0.232921
-0.198583
-0.171057
-0.101666
-0.059936
-0.13646
-0.274228
-0.28991
-0.300217
0.768307
0.882071
-0.0984978
0.0523485
0.527424
0.692067
0.428444
0.323885
0.226064
0.897059
0.953369
1.00619
1.00087
1.01625
0.966737
0.498361
0.648498
0.572757
0.729081
0.662785
0.823616
0.930914
0.842652
0.901028
0.286808
-0.0810633
-0.0777954
0.0934247
0.201615
0.586046
0.711886
0.805527
0.480273
0.90951
0.859586
0.921567
0.979406
1.0193
1.01045
1.0135
0.997834
1.01068
0.96489
-0.25956
-0.27715
-0.204503
-0.236488
-0.181333
-0.143763
-0.0554122
-0.098362
-0.0167887
0.802705
0.669946
0.73884
0.815034
0.534931
0.589407
0.482993
0.391217
0.427891
0.0247211
0.150035
0.0824871
0.182564
0.311681
0.242677
0.603276
-0.295364
-0.310697
0.405609
0.195055
0.117764
0.320425
0.236189
-0.319156
-0.320097
0.0400123
-0.0142644
-0.258864
-0.22232
-0.187635
-0.088261
-0.149281
-0.288852
-0.312073
0.820181
0.919867
-0.100365
-0.100936
0.0630185
0.230957
0.609819
0.753084
0.522114
0.402782
0.89041
0.954933
1.00193
0.99491
0.979608
0.52758
0.447673
0.577608
0.633462
0.722368
0.805713
0.948071
0.889648
-0.0836107
0.386629
0.0436248
0.103622
0.272713
0.656124
0.813721
0.565048
0.864882
0.911682
0.951771
0.989029
1.00868
0.997033
-0.262235
-0.290294
-0.226093
-0.181854
-0.135392
-0.0857246
-0.0280094
0.753364
0.681197
0.792515
0.521925
0.44369
0.375121
0.0504403
0.137254
0.208299
0.297038
0.544973
0.624356
-0.330514
-0.321267
0.351588
0.08566
0.168039
0.240884
-0.343722
-0.344174
0.0118133
-0.0382281
-0.273481
-0.242747
-0.201659
-0.109991
-0.179949
-0.323868
0.860483
0.949225
0.0680618
-0.0999699
0.237527
0.426064
0.751588
0.642439
0.895432
0.959164
0.9898
0.981185
0.460265
0.559828
0.689343
0.81394
0.9573
0.907141
-0.0851533
0.0654632
-0.0855844
0.474058
0.194687
0.340586
0.724473
0.83871
0.65765
0.840952
0.88857
0.97481
0.937451
0.991308
0.994186
-0.273313
-0.310503
-0.233372
-0.167189
-0.0345439
-0.100675
0.699492
0.767145
0.454525
0.365466
0.0390134
0.126743
0.197502
0.280024
0.484155
0.596758
-0.365709
-0.349178
0.343566
0.228779
0.0334459
0.139548
-0.381016
-0.379235
-0.0733134
-0.302928
-0.25342
-0.194972
-0.36675
0.914546
0.967068
0.397566
0.614229
0.786853
0.861454
0.906629
0.965433
0.968344
0.408119
0.57391
0.708794
0.823361
0.966543
0.917504
0.0810901
0.272471
-0.0844049
0.550802
0.418491
0.829465
0.741926
0.806969
0.876806
0.963776
0.988282
-0.301322
-0.244208
-0.186556
-0.0498796
-0.125862
0.690575
0.0178822
0.361488
0.115823
0.236613
0.420213
0.535374
-0.0527616
-0.42191
-0.407655
-0.377493
0.22855
-0.0494642
0.0792469
-0.429432
-0.43089
-0.164719
-0.341418
-0.301902
-0.296925
-0.425443
0.969608
0.787707
0.923927
0.895784
0.932447
0.247683
0.42726
0.591736
0.747465
0.971195
0.926979
0.468341
0.410594
0.64066
0.886126
0.810096
0.745516
0.800013
0.91117
0.974629
-0.263346
-0.326513
-0.235198
-0.146156
0.590118
0.037346
0.302812
0.155129
0.411801
-0.0760145
-0.471366
-0.469418
-0.465257
-0.427925
0.0739739
-0.0983963
-0.490498