<VTKFile type="UnstructuredGrid" version="0.1" byte_order="LittleEndian">
<UnstructuredGrid>
<Piece NumberOfPoints="3163" NumberOfCells="6064">
<PointData Scalars="abs_term_u">
<DataArray type="Float64" Name="real_part_term_u" format="ascii">
-0.908489
-0.942248
-0.97255
-0.999411
-0.922141
-0.892038
-0.87118
-0.954783
-0.984724
-1.02288
-1.01148
-0.934132
-0.89926
-0.830815
-0.856689
-0.787088
-0.740278
-0.964254
-1.00011
-1.04282
-1.03349
-1.02165
-0.926738
-0.887771
-0.86462
-0.810252
-0.833217
-0.764576
-0.715788
-0.69029
-0.95801
-0.99094
-1.01918
-1.05923
-1.05158
-1.04057
-0.917051
-0.876215
-0.841956
-0.789765
-0.731889
-0.689124
-0.662632
-0.637433
-0.581978
-0.524186
-0.920386
-0.952925
-0.983895
-0.930413
-0.943001
-1.01179
-1.03398
-1.07215
-1.08158
-1.06614
-1.05953
-1.05297
-0.883497
-0.839499
-0.73873
-0.790518
-0.464107
-0.688655
-0.64466
-0.609054
-0.488607
-0.549208
-0.895906
-0.885633
-0.917052
-1.0875
-0.936003
-1.00548
-0.977683
-0.955617
-0.969693
-1.02906
-1.04511
-1.02598
-1.07737
-1.08509
-1.07306
-1.06771
-1.06121
-0.402028
-0.338323
-0.843373
-0.79334
-0.688691
-0.74121
-0.431262
-0.637238
-0.453927
-0.57855
-0.508449
-0.843086
-0.838153
-0.873763
-0.894624
0.408012
0.500257
0.531109
-1.08992
-1.08925
-1.08882
-0.909982
-0.856926
-0.948451
-0.970942
-1.00583
-0.989896
-1.04779
-1.03666
-1.08256
-1.08753
-1.07956
-1.07435
-1.06601
-0.273263
-0.370194
-0.306031
-0.792932
-0.740189
-0.640964
-0.67766
-0.402659
-0.591192
-0.448669
-0.525271
-0.790347
-0.823923
-0.793221
-0.819073
-0.847808
-0.855958
-0.80082
0.383196
0.455473
0.286418
0.333476
0.175623
0.449075
0.360138
0.39542
-0.153799
0.235028
0.0727723
-0.215059
0.0210037
-0.0463016
0.206071
0.583458
0.378895
0.496978
0.576174
0.517038
0.649447
-1.08994
-1.09004
-1.0842
-1.08712
-0.274685
-0.796927
-0.719102
-0.84347
-0.939649
-0.895009
-0.975464
-1.0004
-1.01971
-1.0434
-1.05612
-1.08786
-1.08364
-1.07683
-1.06827
-0.422823
-0.650672
-0.547999
-0.300379
-0.359432
-0.207136
-0.240406
-0.338357
-0.27145
-0.736513
-0.681122
-0.612032
-0.630124
-0.37177
-0.546283
-0.400383
-0.472441
-0.742278
-0.72824
-0.663548
-0.761723
-0.776785
-0.807029
-0.796959
-0.753492
-0.140438
-0.073605
-0.00692722
0.0595428
0.243727
0.326681
0.220204
0.258345
0.0809942
0.115922
0.298295
0.259619
-0.0944181
-0.239631
0.0983129
-0.0530363
-0.108318
0.0329018
0.152986
0.348953
0.685356
0.511288
0.649885
0.622317
0.758093
-1.08927
-1.09021
-1.07601
-1.0807
-1.08462
-0.172931
-0.617913
-0.345238
-0.493774
-0.685249
-0.793115
-0.868743
-0.96489
-0.927523
-0.980368
-0.999482
-1.02395
-1.04227
-1.06147
-1.08844
-1.08405
-1.07602
-1.06424
-0.481186
-0.582928
-0.610194
-0.366635
-0.424142
-0.173894
-0.207173
-0.301709
-0.228397
-0.677412
-0.606681
-0.570194
-0.331846
-0.492346
-0.353623
-0.414654
-0.682417
-0.716904
-0.653884
-0.699405
-0.695386
-0.751038
-0.738374
-0.105906
0.0272044
-0.0365871
0.125318
0.189903
0.0932231
0.253082
0.00859422
-0.0364246
0.112999
0.197764
0.134731
0.0314811
0.051789
0.137114
0.117259
-0.195933
-0.31505
-0.0253802
-0.162379
-0.0503634
0.00362347
0.163393
0.33535
0.490103
0.780861
0.652837
0.740439
0.851433
-1.08889
-1.08733
-1.07081
-1.07685
-1.08089
-0.0598947
-0.249205
-0.566215
-0.421551
-0.637703
-0.745925
-0.828577
-0.898816
-0.955486
-0.994751
-1.02025
-1.05419
-1.03575
-1.07042
-1.08666
-1.0814
-1.05793
-1.04879
-0.532249
-0.593664
-0.403536
-0.463655
-0.148459
-0.257104
-0.183986
-0.617295
-0.539516
-0.518025
-0.286758
-0.430544
-0.338876
-0.629173
-0.684192
-0.624498
-0.634676
-0.640851
-0.685213
-0.0678514
0.062825
0.00962345
0.15843
0.222607
0.125305
0.314456
0.284242
0.373844
-0.0236515
-0.0517336
-0.00331175
0.0681408
0.0134279
-0.0228062
0.000289025
-0.0155614
-0.276067
-0.359342
-0.133231
-0.244376
-0.072466
0.126559
0.310914
0.514124
0.696646
0.862403
0.80391
0.925901
-1.08526
-1.08503
-1.08052
-1.06585
-1.07307
-1.05354
0.0647505
-0.139373
-0.330318
-0.497469
-0.576152
-0.700703
-0.781351
-0.852181
-0.91699
-0.96794
-1.06094
-1.011
-1.03952
-1.07455
-1.08213
-1.06164
-1.02974
-1.0071
-1.04033
-0.980821
-0.567042
-0.530726
-0.385756
-0.424155
-0.47157
-0.109184
-0.139231
-0.205959
-0.555537
-0.491638
-0.459646
-0.236976
-0.371334
-0.275099
-0.564639
-0.629663
-0.576381
-0.566065
-0.603447
-0.0336309
0.0822843
0.0425034
0.194842
0.254403
0.158854
0.431178
0.344581
0.314185
0.403204
-0.0800792
-0.114771
-0.0493367
-0.0917905
-0.113848
-0.126246
-0.338001
-0.216673
-0.295645
-0.130824
0.259979
0.458156
0.651748
0.807579
0.918936
0.976349
-1.07964
-1.08027
-1.07723
-1.07014
-1.05871
-1.04129
-0.0189033
0.175795
-0.22509
-0.417691
-0.117604
-0.51263
-0.64505
-0.771454
-0.869476
-0.927534
-0.977255
-1.04235
-1.01566
-1.04528
-1.07327
-1.05698
-1.0166
-0.994581
-1.02726
-0.950906
-0.969985
-0.917375
-0.521869
-0.507145
-0.387747
-0.418654
-0.455487
-0.0725786
-0.136095
-0.48915
-0.407677
-0.180265
-0.306942
-0.223218
-0.493523
-0.558832
-0.511624
-0.480139
-0.519278
0.486061
0.00864542
0.075638
0.111937
0.247432
0.192254
0.459655
0.325433
0.382648
0.368211
0.432054
-0.158256
-0.205559
-0.153856
-0.176771
-0.204908
-0.202497
-0.345844
-0.272655
-0.317041
-0.20478
0.881364
0.386362
0.584094
0.767288
0.963497
1.00361
-1.02092
-1.07334
-1.07193
-1.06606
-1.05551
-1.04035
-1.01796
0.288743
0.0497587
-0.322185
-0.167242
-0.458484
-0.576461
-0.699866
-0.807345
-0.883755
-0.932294
-0.9791
-1.0183
-1.03528
-1.06335
-1.04663
-0.995199
-0.880231
-0.937949
-0.956749
-0.901939
-0.467936
-0.360327
-0.455022
-0.40525
-0.0339856
-0.0843359
-0.40237
-0.313526
-0.129922
-0.220927
-0.402586
-0.471972
-0.431658
-0.408595
0.512278
0.538289
0.587791
0.0671288
0.137071
0.273396
0.22062
0.342361
0.485786
0.388158
0.427625
-0.231531
-0.26783
-0.242478
-0.261847
-0.32979
-0.301416
-0.307767
-0.271281
0.892614
0.50225
0.73444
0.977218
1.00987
-0.994095
-1.06305
-1.0611
-1.05141
-1.03723
-1.01582
-0.991371
0.400611
0.185666
-0.0319815
-0.353404
-0.235392
-0.503623
-0.636503
-0.753574
-0.862741
-0.929686
-0.9735
-1.00464
-1.02259
-1.04995
-1.03095
-0.839602
-0.962666
-0.860709
-0.926996
-0.882327
-0.79558
-0.748177
-0.310207
-0.398613
-0.339784
-0.372213
0.011549
-0.0361631
-0.313059
-0.0328369
-0.21819
-0.122254
-0.30358
-0.371741
-0.339382
-0.285995
0.537668
0.563655
0.611736
0.63456
0.105509
0.162348
0.300897
0.251039
0.363409
0.401571
0.493415
0.446185
0.550355
-0.288697
-0.296443
-0.296763
-0.288245
-0.294136
-0.278607
-0.304539
0.888946
0.587624
0.761501
0.990761
0.961143
0.951092
-0.963417
-1.04705
-1.03261
-1.01408
-0.991786
-0.962939
0.469408
0.300333
0.0878471
-0.117016
-0.413686
-0.307818
-0.561185
-0.688912
-0.786639
-0.870919
-0.919458
-0.963274
-0.990076
-1.00534
-1.03029
-1.01009
-0.818113
-0.928156
-0.843805
-0.887522
-0.644032
-0.697561
-0.772627
-0.724107
-0.587725
-0.528801
-0.240732
-0.260156
-0.312605
-0.286502
0.0548216
0.0439138
-0.204221
-0.0227013
-0.111685
-0.185964
-0.261288
-0.234258
-0.169957
0.591362
0.635584
0.657094
0.678466
0.719375
0.141682
0.198615
0.292464
0.35513
0.421495
0.469565
0.511828
0.562737
0.602587
-0.30082
-0.289843
-0.230784
-0.249505
-0.286682
0.807894
0.623131
0.954578
0.867269
0.89472
-0.930121
-1.01995
-0.992537
-0.964941
-0.932638
0.410892
0.204163
-0.00399648
-0.201523
-0.478113
-0.381058
-0.6198
-0.73934
-0.844237
-0.909878
-0.947941
-0.971895
-0.984169
-1.00497
-0.984535
-0.79686
-0.890386
-0.812257
-0.846623
-0.616926
-0.671879
-0.744861
-0.699179
-0.56183
-0.467596
-0.501482
-0.159568
-0.166751
-0.182055
-0.209656
0.130059
0.0853238
-0.0925354
-0.0227608
-0.0666413
-0.150038
-0.115368
-0.0557441
0.0868724
0.642789
0.757412
0.741654
0.678201
0.701479
0.792643
0.825035
0.231369
0.341321
0.391322
0.442879
0.493244
0.546082
0.606038
0.650338
-0.258607
-0.243107
-0.162126
-0.177996
-0.0633526
-0.206935
0.71515
0.515427
0.884581
0.893192
0.776184
0.810558
-0.89556
-0.989629
-0.963758
-0.933419
-0.899997
0.313613
0.102744
-0.097528
-0.283025
-0.447763
-0.538707
-0.955238
-0.670438
-0.775295
-0.85566
-0.904124
-0.924894
-0.957924
-0.975773
-0.955426
-0.764539
-0.850221
-0.806666
-0.763636
-0.591662
-0.646184
-0.70679
-0.536498
-0.40438
-0.436144
-0.467864
-0.339494
-0.273235
-0.0610019
-0.0675533
-0.0905227
0.200821
0.175697
0.0386665
0.0481068
-0.00742502
-0.030718
0.0539332
0.159895
0.690715
0.77646
0.762836
0.729102
0.854725
0.809444
0.840339
0.30799
0.386995
0.425957
0.472209
0.517249
0.562357
0.610389
0.657254
0.700532
0.881756
-0.15552
-0.0649192
0.0450907
0.0302689
-0.0745081
0.610798
0.414551
0.822115
0.82137
0.672931
0.722417
0.696881
-0.857502
-0.955861
-0.927727
-0.901128
-0.866518
0.205067
0.00355852
-0.193602
-0.359281
-0.440443
-0.504417
-0.590935
-0.924953
-0.712923
-0.799913
-0.86771
-0.86929
-0.927526
-0.941769
-0.921346
-0.719141
-0.800923
-0.738263
-0.584991
-0.657452
-0.503732
-0.36742
-0.429921
-0.396699
-0.300359
-0.13805
-0.205897
-0.237112
0.0504425
0.0469548
0.286792
0.0922625
0.267851
0.152927
0.14975
0.089887
0.142115
0.25406
0.736885
0.79338
0.771323
0.868752
0.825998
0.853339
0.745471
0.446269
0.398764
0.498161
0.581008
0.542807
0.622363
0.665853
0.709616
0.906252
0.894397
0.928367
0.9482
0.161824
0.00571289
0.0706849
0.145574
0.0878524
0.500413
0.303505
0.750963
0.735236
0.587297
0.57727
0.621412
-0.81695
-0.91717
-0.880817
-0.827184
0.0978185
-0.101341
-0.306602
-0.463509
-0.552796
-0.635139
-0.887909
-0.738094
-0.818119
-0.837055
-0.891873
-0.903888
-0.882575
-0.677218
-0.757244
-0.695719
-0.535533
-0.606459
-0.46605
-0.0698153
-0.00168324
-0.391578
-0.325324
-0.353155
-0.260479
-0.0979861
-0.165928
-0.200255
0.0660635
0.13285
0.198795
0.263125
0.163398
0.145204
0.368607
0.185558
0.349463
0.247765
0.238997
0.215663
0.33911
0.777715
0.812116
0.878704
0.849929
0.779839
0.759562
0.482341
0.458049
0.537465
0.567554
0.632116
0.609943
0.670737
0.712858
0.917555
0.9061
1.00729
0.995324
0.965905
0.98157
0.938414
0.95702
0.265484
0.260212
0.168475
0.249474
0.248492
0.385081
0.189279
0.665407
0.639804
0.448398
0.483755
0.497318
0.547612
-0.769662
-0.874534
-0.832862
-0.781432
-0.0121251
-0.201769
-0.365843
-0.507011
-0.588619
-0.668073
-0.852854
-0.767071
-0.810096
-0.852141
-0.859133
-0.838347
-0.630285
-0.709484
-0.645011
-0.498076
-0.557549
-0.435024
-0.0353409
0.026619
-0.354628
-0.310042
-0.26118
-0.0644182
-0.126656
-0.166224
0.0943511
0.166407
0.139301
0.231425
0.386308
0.325745
0.294451
0.262955
0.434363
0.509614
0.295672
0.41265
0.338594
0.324019
0.404988
0.894527
0.809772
0.843447
0.876488
0.803086
0.752474
0.791537
0.538298
0.58715
0.622583
0.645378
0.667982
0.712728
1.01762
1.02638
1.03365
1.0395
0.927393
0.914179
1.0121
1.00111
0.987703
0.973043
0.946865
0.963768
0.333937
0.363403
0.354106
0.314435
0.371171
0.270878
0.0820956
0.570231
0.538723
0.333857
0.378579
0.424048
0.447439
-0.71868
-0.830664
-0.7905
-0.735838
-0.116506
-0.418957
-0.283906
-0.465307
-0.532968
-0.611937
-0.690279
-0.808441
-0.760983
-0.809714
-0.807395
-0.790565
-0.576958
-0.653091
-0.597836
-0.493913
0.444582
0.500468
0.553763
-0.399208
0.0439751
-0.00894677
-0.307816
-0.263954
-0.219101
-0.0685198
-0.125277
0.0906435
0.200142
0.16089
0.270046
0.415911
0.356647
0.325876
1.03694
1.02995
1.02122
1.04396
1.04708
0.567393
0.372863
0.487821
0.536326
0.393457
0.468132
0.422948
0.907642
0.837243
0.868755
0.897323
0.828101
0.747286
0.782737
0.816717
0.601611
0.637759
0.671705
0.711608
1.02195
1.01461
1.02963
1.03615
1.04147
0.932372
1.00711
0.993688
0.97661
0.957343
1.04886
1.0493
1.04838
1.04607
1.04228
0.426361
0.398505
0.421396
0.423076
0.404054
0.423935
0.161705
-0.0228782
0.470126
0.43614
0.334915
0.384017
0.227252
0.278655
0.309963
0.314157
-0.663072
-0.760287
-0.687382
-0.202084
-0.36739
-0.461578
-0.545769
-0.621258
-0.694976
-0.775844
-0.747705
-0.768833
-0.754263
-0.743039
-0.531461
-0.582209
-0.442899
0.473199
0.527847
0.566946
0.604199
0.737932
0.696316
0.651813
0.901573
0.925867
0.947518
-0.347933
0.0279649
-0.256797
-0.217732
-0.176474
-0.0323629
-0.0881378
0.112791
0.181985
0.245772
0.449082
0.322411
0.389414
0.966715
1.03929
1.03321
0.983603
1.01067
0.998186
1.02533
1.01579
1.0452
1.04762
0.573655
0.610965
0.442553
0.529128
0.465627
0.494467
0.92182
0.86138
0.885428
0.908224
0.849458
0.741457
0.771565
0.800856
0.830616
0.645639
0.68262
0.716229
1.0199
1.02649
1.01093
1.03169
1.03706
1.0418
0.94584
0.997274
0.98395
0.966811
0.997083
1.04867
1.04842
1.04672
1.0438
1.03998
0.458236
0.443436
0.434275
0.415339
0.42276
0.388021
0.0609967
-0.116483
0.241172
0.159019
0.361042
0.280716
0.297992
0.125589
0.174343
0.202309
0.206182
-0.609365
-0.63078
-0.700117
-0.275299
-0.403948
-0.47553
-0.546198
-0.616753
-0.68621
-0.727734
-0.726001
-0.700711
-0.69419
-0.487176
-0.525745
-0.389245
0.500235
0.553196
0.599023
0.634177
0.776566
0.757899
0.717578
0.673016
0.812194
0.874549
0.844799
0.88853
0.913307
0.935392
0.956044
-0.285995
-0.210497
0.0574622
-0.162475
-0.136953
0.000121615
-0.0512356
0.15581
0.241992
0.319201
0.465079
0.391145
0.975252
1.02786
1.03399
0.991024
1.0044
1.01956
1.00934
1.04521
1.04649
1.04088
0.561096
0.581683
0.6399
0.60591
0.479285
0.532606
0.505389
0.931475
0.883435
0.912076
0.859618
0.748526
0.77888
0.806758
0.834066
0.67521
0.716161
1.02174
1.00772
1.02851
1.03516
0.954022
0.986312
0.972615
0.992521
0.985352
1.04688
1.04595
1.04264
1.03647
0.444427
0.45847
0.416255
0.342702
0.345454
0.264516
0.249035
-0.0327379
-0.187281
0.089791
0.114714
0.195881
0.191374
0.254849
0.0307726
0.0771137
0.103941
0.10275
-0.553674
-0.57564
-0.643611
-0.32166
-0.422889
-0.477046
-0.534352
-0.598746
-0.663371
-0.685939
-0.644587
-0.645507
-0.430889
-0.469717
-0.3269
0.534277
0.589054
0.642042
0.795182
0.778247
0.743697
0.698801
0.829827
0.859756
0.875389
0.901492
0.922787
0.944292
0.964476
-0.213942
-0.130526
0.087041
-0.0598123
0.0290013
0.167395
0.316597
0.240514
0.390063
0.518812
0.462955
0.980354
1.02409
1.0279
0.997186
1.01044
1.04214
1.04407
1.03569
0.548577
0.651962
0.579678
0.614492
0.482239
0.516002
0.9352
0.886856
0.910859
0.859622
0.749109
0.776489
0.801988
0.826382
0.646289
0.686349
0.716904
1.01563
0.999836
1.02163
1.02499
0.95519
0.972735
0.981422
0.975526
1.04254
1.04033
1.02844
1.03629
0.406515
0.425657
0.348491
0.242864
0.179893
0.0716406
0.118022
-0.112275
-0.243649
0.0384241
0.00673162
0.0536396
0.0652268
0.106053
0.106258
0.155247
-0.0526472
-0.0100981
0.014824
0.0277512
-0.503522
-0.528856
-0.585011
-0.351094
-0.438564
-0.504526
-0.56442
-0.624677
-0.594804
-0.581572
-0.375219
-0.417701
-0.270348
0.576806
0.625993
0.682262
0.810381
0.781484
0.733535
0.850087
0.884042
0.916397
0.941608
0.963129
-0.158646
-0.0936939
-0.0223408
0.126509
0.0613574
0.385772
0.225925
0.31051
0.460136
0.535982
0.97995
1.01616
1.01806
0.993371
1.00173
1.03584
1.02517
0.536944
0.608472
0.57112
0.593233
0.451264
0.477507
0.931524
0.881939
0.900846
0.846146
0.742
0.764007
0.786256
0.808292
0.560969
0.622883
0.67815
0.708349
1.00538
0.986078
1.00956
1.01124
0.952475
0.967729
0.959301
1.01537
1.03296
1.02481
0.344641
0.361573
0.245618
0.109476
-0.154973
-0.021523
-0.0770896
-0.00256858
-0.1766
-0.282886
0.0135789
-0.00523379
0.0158151
0.0327448
0.0558885
-0.122683
-0.0836059
-0.0572645
-0.0396646
-0.456902
-0.505905
-0.361802
-0.409749
-0.467142
-0.5197
-0.566952
-0.546577
-0.506646
-0.318549
-0.363107
-0.217249
-0.103284
0.607226
0.668256
0.719781
0.823457
0.800389
0.774192
0.85778
0.892788
0.919954
0.941306
0.960834
-0.0442346
0.0256982
0.104955
0.450619
0.185706
0.254534
0.380838
0.307375
0.518883
0.587391
0.975856
1.00506
1.00367
0.985653
0.990111
1.02213
1.00857
0.504423
0.541896
0.497036
0.385091
0.413385
0.916727
0.863564
0.87851
0.818933
0.719592
0.737274
0.766194
0.492278
0.580892
0.661429
0.989629
0.965433
0.993379
0.996017
0.930253
0.938883
0.997335
1.00745
1.01613
0.250605
0.267547
0.119052
-0.0303795
-0.163771
-0.366925
-0.260444
-0.242037
-0.0211688
-0.301978
-0.224559
-0.0296873
-0.0377216
-0.0339364
-0.177707
-0.142219
-0.116902
-0.102011
-0.401381
-0.431397
-0.352914
-0.370375
-0.417872
-0.461304
-0.505516
-0.471483
-0.256345
-0.301509
-0.145322
-0.0492623
0.00561081
0.654184
0.716602
0.75406
0.819571
0.794807
0.867105
0.901103
0.922692
0.934199
0.957081
0.0685012
0.141165
0.218482
0.503227
0.440614
0.297111
0.384134
0.56973
0.545217
0.637199
0.966256
0.989495
0.983844
0.973025
0.974349
1.00248
0.987589
0.42179
0.432807
0.39803
0.295261
0.332598
0.889099
0.83114
0.842813
0.773027
0.677979
0.697565
0.71053
0.417559
0.515259
0.606893
0.967432
0.934732
0.972634
0.895909
0.896725
0.977268
0.983226
0.993029
0.128875
0.145649
-0.017772
-0.162791
-0.293169
-0.51672
-0.449771
-0.497357
-0.402917
-0.0704598
-0.301902
-0.255097
-0.0928472
-0.100455
-0.21665
-0.184675
-0.160731
-0.15048
-0.383417
-0.326248
-0.295523
-0.323103
-0.328399
-0.35857
-0.391394
-0.417234
-0.191742
-0.238209
-0.076823
0.0421289
0.113142
0.701114
0.758366
0.841178
0.812069
0.880658
0.911739
0.924773
0.940045
0.171699
0.246905
0.325231
0.479524
0.403853
0.555204
0.611324
0.680255
0.950839
0.968698
0.959167
0.953587
0.96016
0.969638
0.33035
0.317025
0.308196
0.186099
0.846557
0.784374
0.788164
0.713905
0.62618
0.649966
0.638058
0.293937
0.426878
0.537874
0.937487
0.896161
0.936851
0.847082
0.84533
0.946937
0.95943
-0.0120628
-0.00140172
-0.164446
-0.309824
-0.432384
-0.567683
-0.556374
-0.530192
-0.13243
-0.269115
-0.161312
-0.233444
-0.208433
-0.189668
-0.336317
-0.28739
-0.232054
-0.27786
-0.280403
-0.289403
-0.312426
-0.33116
0.102629
-0.132075
0.00652931
0.164939
0.200103
0.200516
0.734715
0.783479
0.854351
0.824074
0.886755
0.911695
0.923025
0.269253
0.3473
0.418588
0.496959
0.566978
0.613781
0.658664
0.710407
0.925065
0.939112
0.920812
0.915643
0.931847
0.932095
0.219219
0.185198
0.158179
0.0158328
0.788391
0.719477
0.731934
0.634562
0.561857
0.545625
0.170698
0.315666
0.444935
0.893238
0.839291
0.885105
0.785872
0.775037
0.890645
0.912544
-0.16518
-0.159592
-0.316695
-0.444079
-0.532899
-0.498283
-0.553909
-0.572669
-0.567329
-0.186075
-0.24995
-0.206406
-0.228633
-0.215665
-0.246937
-0.157723
-0.234424
-0.225971
-0.212075
-0.225279
-0.23524
0.117649
-0.0241097
0.274754
0.237796
0.306949
0.797758
0.757318
0.856339
0.825742
0.879621
0.896248
0.892486
0.363744
0.483888
0.436116
0.547925
0.610575
0.675719
0.73665
0.88867
0.896135
0.865317
0.867073
0.878586
0.0436541
0.0280528
-0.151497
0.710949
0.637741
0.534234
0.448049
0.449708
0.0321193
0.18227
0.328246
0.827485
0.761056
0.810932
0.697693
0.685117
0.822181
0.848406
-0.317605
-0.314988
-0.452744
-0.54598
-0.58177
-0.31247
-0.433051
-0.532969
-0.573685
-0.210172
-0.212664
-0.20699
-0.204772
-0.133275
-0.0238165
-0.1704
-0.159404
-0.127305
-0.131738
-0.131659
0.184281
0.0918122
0.379556
0.272012
0.392605
0.335801
0.7864
0.845703
0.815671
0.857202
0.865741
0.864485
0.451201
0.521616
0.655142
0.594681
0.707214
0.750641
0.839479
0.83562
0.793586
0.801106
0.7889
-0.138761
-0.131403
-0.310999
0.610603
0.503243
0.375209
0.331082
-0.124852
0.0284861
0.187072
0.743134
0.668359
0.718735
0.591346
0.574349
0.747492
0.765047
-0.452767
-0.45373
-0.55809
-0.59972
-0.579805
-0.0405282
-0.177727
-0.376741
-0.506457
-0.186753
-0.152746
-0.161986
-0.0180814
0.0813944
-0.0879161
-0.0777697
-0.0375724
-0.0263343
0.193176
0.296113
0.453763
0.357515
0.450607
0.415736
0.782137
0.813493
0.821067
0.825546
0.515318
0.673043
0.575781
0.62813
0.711088
0.740076
0.760245
0.756428
0.702816
0.716566
0.689745
-0.304512
-0.264449
-0.444341
0.479124
0.351143
0.208148
0.194954
-0.287412
-0.137031
0.0264624
0.637142
0.566134
0.600193
0.457953
0.451041
0.659538
-0.535737
-0.573489
-0.61879
-0.596089
0.272805
-0.50898
0.137882
0.0233911
-0.169112
-0.362711
-0.11131
-0.0550852
0.162989
0.0849348
0.00997627
0.0512262
0.0782368
0.24997
0.365074
0.335155
0.501637
0.415441
0.470616
0.759146
0.769668
0.771245
0.665869
0.549822
0.633485
0.594751
0.690982
0.713907
0.66623
0.691099
0.656984
0.593407
0.608728
0.562599
-0.426456
-0.553042
0.330342
0.200615
0.070395
0.0389175
-0.448832
-0.306567
-0.144538
0.484355
0.45141
0.300062
0.338661
0.51654
-0.616592
-0.64106
-0.618812
-0.524349
0.570014
0.420035
-0.373448
0.269076
0.0560868
-0.165404
0.00599437
0.0814795
0.195953
0.136694
0.173671
0.304476
0.36409
0.403633
0.517305
0.450656
0.482157
0.710879
0.704208
0.620617
0.633665
0.549622
0.579234
0.646717
0.618123
0.58304
0.619344
0.536406
0.477402
0.495643
0.410195
-0.565565
-0.645856
0.17545
0.0250135
-0.585211
-0.122709
-0.464508
-0.320653
0.312458
0.27736
0.17236
0.351824
-0.671537
-0.642865
0.791102
-0.545925
-0.391263
0.675845
0.496249
-0.187577
0.284184
0.0443471
0.145224
0.21166
0.287143
0.257784
0.367759
0.40281
0.42898
0.500241
0.444085
0.447592
0.615481
0.531391
0.571968
0.566382
0.509838
0.50656
0.541417
0.515687
0.381913
0.381257
0.246146
0.231705
-0.668642
-0.699996
-0.00272098
-0.171827
-0.684466
-0.586027
-0.337396
-0.486335
0.130683
0.089055
-0.0261946
0.167534
0.888902
-0.668438
-0.57493
0.85081
-0.418775
-0.215636
0.707657
0.503923
0.0178556
0.266757
0.275693
0.322968
0.35246
0.398995
0.390675
0.405989
0.402493
0.44177
0.38935
0.365471
0.488438
0.425645
0.48994
0.459441
0.428942
0.417532
0.412531
0.342372
0.248313
0.104083
0.0404135
-0.723264
-0.697436
-0.191426
-0.732636
-0.358544
-0.714153
-0.639786
-0.511431
-0.0650999
-0.101166
-0.226591
-0.0188839
0.838126
0.638972
0.8678
0.853159
-0.60578
-0.452432
0.813045
-0.248472
-0.0129369
0.679464
0.474561
0.233291
0.363818
0.386897
0.38776
0.381811
0.359834
0.33046
0.332819
0.287668
0.23742
0.348602
0.269237
0.369654
0.314871
0.300786
0.244307
0.167661
0.0447535
-0.0847075
-0.152618
-0.642848
-0.732154
-0.38505
-0.751498
-0.529141
-0.722743
-0.647193
-0.256805
-0.254186
-0.419472
-0.218696
0.320883
0.732928
0.484511
0.78588
0.813532
-0.488663
-0.285783
0.767926
-0.0498866
0.197851
0.629759
0.430888
0.382978
0.358778
0.32912
0.267638
0.213214
0.183876
0.144831
0.0751885
0.108228
0.180749
0.21615
0.136691
0.114892
0.0473971
-0.0221905
-0.146938
-0.274931
-0.354575
-0.518717
-0.662084
-0.741778
-0.549563
-0.763946
-0.660377
-0.735297
-0.440353
-0.577309
-0.401446
0.361191
0.145622
-0.0640291
0.579205
0.703155
0.751811
-0.322902
-0.0916856
0.704659
0.151437
0.381818
0.573755
0.318454
0.255269
0.14978
0.18868
0.0591208
0.00230042
-0.112821
-0.0283554
-0.0617379
0.024153
-0.0697438
-0.0758168
-0.173018
-0.194241
-0.329839
-0.444269
-0.521976
-0.348013
-0.535389
-0.66686
-0.741905
-0.671978
-0.765812
-0.739954
-0.615571
-0.684353
-0.547518
-0.44945
0.319539
0.0814359
-0.241456
0.492194
0.63464
0.685344
-0.124993
0.108718
0.641266
0.331099
0.51616
0.17213
0.083626
0.00365875
-0.106651
-0.176326
-0.254985
-0.219622
-0.2782
-0.168483
-0.261044
-0.265
-0.352829
-0.384315
-0.483739
-0.567872
-0.763288
-0.636906
-0.144487
-0.357595
-0.528946
-0.654299
-0.729498
-0.736921
-0.756552
-0.696708
-0.727792
-0.63779
-0.597063
0.256469
0.0199407
-0.252922
0.441785
0.57534
0.623114
0.0773302
0.289303
0.582461
0.465134
0.000170563
-1.4699e-05
8.04952e-05
-0.0335157
-0.134564
-0.217914
-0.282658
-0.350668
-0.397338
-0.440084
-0.349018
-0.42455
-0.428033
-0.490505
-0.518196
-0.581946
-0.63041
-0.916961
-0.879903
-0.756979
0.0642801
-0.685534
-0.148557
-0.3487
-0.506627
-0.625404
-0.702793
-0.734128
-0.710392
-0.657113
-0.553133
0.201752
-0.0331354
-0.288836
0.393526
0.523854
0.570317
0.261376
0.425913
0.533955
0.000885794
0.000583222
0.000320177
8.09209e-06
8.58439e-05
-0.261507
-0.349998
-0.406044
-0.499823
-0.49745
-0.544108
-0.545916
-0.489544
-0.533928
-0.545788
-0.565697
-0.587615
-0.613403
-0.617031
0.0190033
-0.522924
0.018987
0.0022425
0.000401895
-0.784682
-0.920618
-0.771804
0.249271
0.062263
-0.656946
-0.135899
-0.309398
-0.461356
-0.580995
-0.659991
-0.61987
-0.595864
-0.56334
0.168326
-0.0649968
-0.313524
0.359636
0.483635
0.529849
0.399608
0.499466
0.000646965
0.000724692
0.000240937
0.0004269
3.29107e-05
9.30421e-05
0.000198662
-0.466676
-0.527969
-0.588274
-0.585069
-0.602274
-0.581717
-0.570248
-0.574067
-0.589778
-0.564122
-0.581278
-0.562732
-0.521273
0.110776
0.0584285
0.101521
-0.206008
0.0345413
0.00736085
0.000109304
-2.39418e-05
-0.454841
-0.82207
-0.746078
0.381439
0.243456
0.073431
-0.545573
-0.0891001
-0.254342
-0.400085
-0.519317
-0.460358
-0.459613
0.155922
-0.551733
-0.0691646
-0.314527
0.336932
0.455953
0.502452
0.481498
0.476756
0.000434969
0.000438651
0.000274823
6.12074e-05
0.000131404
-0.60388
-0.626514
-0.621214
-0.601517
-0.536962
-0.567699
-0.534085
-0.547328
-0.482976
-0.491735
-0.429863
-0.374339
0.0848149
0.104956
-0.000488147
0.0526027
0.0167107
3.92945e-05
-0.000709967
-0.0782839
-0.324196
-0.702922
-0.71659
0.393238
0.268895
0.124828
-0.37548
-0.0287484
-0.181267
-0.327945
-0.273755
-0.2719
0.153961
-0.0562763
-0.513693
-0.286577
0.323624
0.433336
0.484658
0.484617
0.473039
-3.27675e-05
0.000158081
0.000148669
8.8729e-05
0.00011728
-0.636227
-0.580457
-0.60225
-0.51683
-0.411566
-0.483544
-0.412801
-0.412602
-0.32297
-0.325913
-0.229112
0.0745502
0.093891
0.0360611
0.00540495
-0.00224739
-0.00140981
0.0101192
-0.179993
-0.537894
-0.630778
0.409461
0.309866
0.185255
-0.193403
0.0479062
-0.0914359
-0.115907
-0.0881241
0.157044
-0.0342479
-0.243789
-0.450495
0.311379
0.411628
0.165035
0.438319
0.481863
0.480175
-0.000448696
-6.44298e-05
7.07174e-05
0.000123639
0.00011738
-0.552143
-0.482431
-0.466075
-0.338187
-0.213791
-0.309062
-0.229193
-0.190211
-0.10072
-0.101075
0.0210332
0.0585009
0.0816419
0.0179743
-0.001977
-0.00372173
-0.00195453
0.0487824
-0.0736439
-0.354711
-0.528371
0.435851
0.357691
0.255448
0.00547004
0.145081
0.102603
0.127805
-0.00997176
-0.197746
-0.378006
-0.443173
0.0141301
0.312315
0.171841
0.37296
0.422025
0.478349
0.490293
-0.000751713
-0.00019901
2.61445e-05
0.000151887
0.00012094
-0.355481
-0.263382
-0.0736016
0.0292086
-0.0481959
0.0885822
0.144021
0.15008
0.255745
0.0357551
0.0602668
0.00328001
-0.0061218
-0.00444769
-0.00216328
0.05823
-0.0100683
-0.211572
0.466206
0.41406
0.350565
0.224322
0.305146
0.345503
-0.154865
-0.342259
-0.15498
-0.313479
-0.11116
0.0379355
0.165085
0.297656
0.329837
0.410873
0.469266
0.497071
-0.0008594
-0.000253897
9.38102e-07
0.000169621
0.000117633
-0.0761441
0.0828601
0.225704
0.28142
0.366129
0.259292
0.404196
0.386876
0.463062
0.0147025
0.0347388
-0.00212361
-0.0059995
-0.00803159
-0.00469102
0.049397
0.0201623
-0.0229363
0.495317
0.472967
0.443446
0.410249
0.512666
-0.0985311
-0.243953
-0.259794
-0.184576
-0.079199
0.0522905
0.195307
0.29178
0.381427
0.449981
0.495111
-0.000798294
-0.000251653
-2.48163e-07
-0.00178692
0.000173268
0.000102955
0.236174
0.371909
0.467599
0.506679
0.59765
0.511776
0.610215
0.569854
0.596603
-0.000978596
0.00868051
0.0283421
-0.00429504
-0.0108101
-0.00851047
0.0346051
0.028301
0.0012434
0.517262
0.523763
0.530139
0.591818
-0.0558333
-0.204877
-0.174525
-0.07432
0.0315996
0.140714
0.243861
0.336856
0.416574
0.482146
-0.000636035
-0.000104076
-0.00122862
-0.0034108
0.000157359
7.64618e-05
0.525666
0.638192
0.660427
0.732
0.715195
0.730227
0.663718
0.629026
-0.00943648
0.000550687
-0.00795124
-0.0128781
0.0114173
0.0197512
0.0124046
0.527135
0.560669
0.564739
-0.021687
-0.131667
-0.167866
-0.0996128
-0.0144478
0.0796936
0.17717
0.459548
0.274781
0.368124
-0.00651271
-0.000418638
-6.65681e-05
-0.00343641
-0.00129034
3.96117e-05
0.00012142
0.735569
0.791195
0.711179
0.794539
0.770286
0.734698
0.64747
0.551158
-0.0126032
-0.0152506
-0.0123225
-0.00302833
-0.0156245
0.00832923
0.0133759
0.48663
0.43457
-0.0035784
-0.0885802
-0.175332
-0.151717
-0.0828638
-0.0025286
0.0891821
0.367294
0.191779
-0.00952771
-0.00515485
-0.000403868
-0.000114643
-0.00200402
-0.000561142
1.47355e-06
6.56954e-05
0.821053
0.802815
0.645562
0.750327
0.626429
0.518812
0.370774
-0.0159819
-0.0163685
-0.0145771
-0.000365925
0.0109839
0.312057
0.217159
0.0050731
-0.0585025
-0.180219
-0.219853
-0.16952
-0.105883
-0.00413133
0.172176
-0.00825662
-0.0032689
-0.000120422
-4.87766e-05
-0.000733131
4.19884e-05
-4.58007e-05
-5.832e-06
0.759514
0.672851
0.471136
0.55451
0.426932
0.290619
0.110147
-0.0121959
-0.0154176
-0.0150356
-0.00527668
0.00863137
0.0687855
-0.0606397
0.00982597
-0.0375636
-0.176007
-0.29243
-0.276322
-0.204156
-0.0691552
-0.00539332
-0.00117958
0.000105703
-8.85369e-06
0.000416958
0.000539355
-0.000103446
-9.11598e-05
0.555748
0.41311
0.186414
0.2646
-0.00567976
-0.18809
-0.00888346
-0.0124472
-0.0136245
-0.00623746
0.00858757
-0.217902
-0.33827
0.0152979
-0.0193352
-0.159914
-0.358122
-0.381674
-0.324654
-0.00232577
0.000707941
0.000261541
6.78577e-06
0.00133756
0.000869299
-0.00015939
-0.000183813
0.240419
0.0673958
-0.133787
-0.110963
-0.320507
-0.47126
-0.00471651
-0.00837059
-0.0101471
-0.00420565
0.0108072
-0.452646
-0.559427
0.0228503
-0.00137488
-0.13336
-0.395795
-0.52887
0.000482962
0.00221654
0.000338242
-6.21156e-06
0.00103611
0.00195512
-0.000213151
-0.000272395
-0.133702
-0.310947
-0.410947
-0.46591
-0.602339
-0.717483
-0.000978525
-0.00382204
-0.00569843
-0.000658711
0.0141603
-0.604419
-0.657322
0.0310901
0.0168207
-0.100902
-0.397701
0.00270259
0.0032222
0.000209521
0.00103085
0.00222829
-0.000229815
-0.000346295
-0.50196
-0.652337
-0.709396
-0.799443
-0.758934
-0.635558
0.00201273
8.01344e-06
-0.00147258
0.00290238
0.0183141
-0.370744
-0.361783
0.0392256
0.0361498
-0.0582835
0.00420633
0.00367512
0.000240923
0.0011735
0.00226185
-0.000271262
-0.000399492
-0.799146
-0.897408
-0.864217
-0.769337
-0.454176
-0.15383
0.00416217
0.00276076
0.00147975
0.00543092
0.0215644
-0.0101945
0.0453983
0.0556143
0.00485729
0.0036542
3.64393e-05
0.000732831
0.00196111
-0.000269938
-0.000424876
-0.952334
-0.792337
-0.261129
-0.0144312
0.0685662
0.00505187
0.00384725
0.0026454
0.00620577
0.020751
0.0757032
0.0459065
0.00475254
0.00315725
0.000233081
0.0013886
-0.000253859
-0.000416779
-0.505303
-0.169521
0.0727974
0.0923579
0.0676903
0.00492507
0.00366479
0.00185735
0.00453613
0.0112425
0.0353727
0.00390819
0.00216236
7.43353e-05
0.00079644
-0.000203172
-0.000375117
0.020413
0.110855
0.0836755
0.0476753
0.0194619
0.00408933
0.00309954
0.00165917
0.000263085
0.00430402
0.00323504
0.0025036
0.00120526
0.000240529
-0.000154356
-0.000303463
0.111897
0.0676469
0.0274143
0.00579559
-0.0021377